  -90.000000000000000          0.0000000000000000     
  -89.974999999999994          0.0000000000000000     
  -89.950000000000003          0.0000000000000000     
  -89.924999999999997          0.0000000000000000     
  -89.900000000000006          0.0000000000000000     
  -89.875000000000000          0.0000000000000000     
  -89.849999999999994          0.0000000000000000     
  -89.825000000000003          0.0000000000000000     
  -89.799999999999997          0.0000000000000000     
  -89.775000000000006          0.0000000000000000     
  -89.750000000000000          0.0000000000000000     
  -89.724999999999994          0.0000000000000000     
  -89.700000000000003          0.0000000000000000     
  -89.674999999999997          0.0000000000000000     
  -89.650000000000006          0.0000000000000000     
  -89.625000000000000          0.0000000000000000     
  -89.599999999999994          0.0000000000000000     
  -89.575000000000003          0.0000000000000000     
  -89.549999999999997          0.0000000000000000     
  -89.525000000000006          0.0000000000000000     
  -89.500000000000000          0.0000000000000000     
  -89.474999999999994          0.0000000000000000     
  -89.450000000000003          0.0000000000000000     
  -89.424999999999997          0.0000000000000000     
  -89.400000000000006          0.0000000000000000     
  -89.375000000000000          0.0000000000000000     
  -89.349999999999994          0.0000000000000000     
  -89.325000000000003          0.0000000000000000     
  -89.299999999999997          0.0000000000000000     
  -89.275000000000006          0.0000000000000000     
  -89.250000000000000          0.0000000000000000     
  -89.224999999999994          0.0000000000000000     
  -89.200000000000003          0.0000000000000000     
  -89.174999999999997          0.0000000000000000     
  -89.150000000000006          0.0000000000000000     
  -89.125000000000000          0.0000000000000000     
  -89.099999999999994          0.0000000000000000     
  -89.075000000000003          0.0000000000000000     
  -89.049999999999997          0.0000000000000000     
  -89.025000000000006          0.0000000000000000     
  -89.000000000000000          0.0000000000000000     
  -88.974999999999994          0.0000000000000000     
  -88.950000000000003          0.0000000000000000     
  -88.924999999999997          0.0000000000000000     
  -88.900000000000006          0.0000000000000000     
  -88.875000000000000          0.0000000000000000     
  -88.849999999999994          0.0000000000000000     
  -88.825000000000003          0.0000000000000000     
  -88.799999999999997          0.0000000000000000     
  -88.775000000000006          0.0000000000000000     
  -88.750000000000000          0.0000000000000000     
  -88.724999999999994          0.0000000000000000     
  -88.700000000000003          0.0000000000000000     
  -88.674999999999997          0.0000000000000000     
  -88.650000000000006          0.0000000000000000     
  -88.625000000000000          0.0000000000000000     
  -88.599999999999994          0.0000000000000000     
  -88.575000000000003          0.0000000000000000     
  -88.549999999999997          0.0000000000000000     
  -88.525000000000006          0.0000000000000000     
  -88.500000000000000          0.0000000000000000     
  -88.474999999999994          0.0000000000000000     
  -88.450000000000003          0.0000000000000000     
  -88.424999999999997          0.0000000000000000     
  -88.400000000000006          0.0000000000000000     
  -88.375000000000000          0.0000000000000000     
  -88.349999999999994          0.0000000000000000     
  -88.325000000000003          0.0000000000000000     
  -88.299999999999997          0.0000000000000000     
  -88.275000000000006          0.0000000000000000     
  -88.250000000000000          0.0000000000000000     
  -88.224999999999994          0.0000000000000000     
  -88.200000000000003          0.0000000000000000     
  -88.174999999999997          0.0000000000000000     
  -88.150000000000006          0.0000000000000000     
  -88.125000000000000          0.0000000000000000     
  -88.099999999999994          0.0000000000000000     
  -88.075000000000003          0.0000000000000000     
  -88.049999999999997          0.0000000000000000     
  -88.025000000000006          0.0000000000000000     
  -88.000000000000000          0.0000000000000000     
  -87.974999999999994          0.0000000000000000     
  -87.950000000000003          0.0000000000000000     
  -87.924999999999997          0.0000000000000000     
  -87.900000000000006          0.0000000000000000     
  -87.875000000000000          0.0000000000000000     
  -87.849999999999994          0.0000000000000000     
  -87.825000000000003          0.0000000000000000     
  -87.799999999999997          0.0000000000000000     
  -87.775000000000006          0.0000000000000000     
  -87.750000000000000          0.0000000000000000     
  -87.724999999999994          0.0000000000000000     
  -87.700000000000003          0.0000000000000000     
  -87.674999999999997          0.0000000000000000     
  -87.650000000000006          0.0000000000000000     
  -87.625000000000000          0.0000000000000000     
  -87.599999999999994          0.0000000000000000     
  -87.575000000000003          0.0000000000000000     
  -87.549999999999997          0.0000000000000000     
  -87.525000000000006          0.0000000000000000     
  -87.500000000000000          0.0000000000000000     
  -87.474999999999994          0.0000000000000000     
  -87.450000000000003          0.0000000000000000     
  -87.424999999999997          0.0000000000000000     
  -87.400000000000006          0.0000000000000000     
  -87.375000000000000          0.0000000000000000     
  -87.349999999999994          0.0000000000000000     
  -87.325000000000003          0.0000000000000000     
  -87.299999999999997          0.0000000000000000     
  -87.275000000000006          0.0000000000000000     
  -87.250000000000000          0.0000000000000000     
  -87.224999999999994          0.0000000000000000     
  -87.200000000000003          0.0000000000000000     
  -87.174999999999997          0.0000000000000000     
  -87.150000000000006          0.0000000000000000     
  -87.125000000000000          0.0000000000000000     
  -87.099999999999994          0.0000000000000000     
  -87.075000000000003          0.0000000000000000     
  -87.049999999999997          0.0000000000000000     
  -87.025000000000006          0.0000000000000000     
  -87.000000000000000          0.0000000000000000     
  -86.974999999999994          0.0000000000000000     
  -86.950000000000003          0.0000000000000000     
  -86.924999999999997          0.0000000000000000     
  -86.900000000000006          0.0000000000000000     
  -86.875000000000000          0.0000000000000000     
  -86.849999999999994          0.0000000000000000     
  -86.825000000000003          0.0000000000000000     
  -86.799999999999997          0.0000000000000000     
  -86.775000000000006          0.0000000000000000     
  -86.750000000000000          0.0000000000000000     
  -86.724999999999994          0.0000000000000000     
  -86.700000000000003          0.0000000000000000     
  -86.674999999999997          0.0000000000000000     
  -86.650000000000006          0.0000000000000000     
  -86.625000000000000          0.0000000000000000     
  -86.599999999999994          0.0000000000000000     
  -86.575000000000003          0.0000000000000000     
  -86.549999999999997          0.0000000000000000     
  -86.525000000000006          0.0000000000000000     
  -86.500000000000000          0.0000000000000000     
  -86.474999999999994          0.0000000000000000     
  -86.450000000000003          0.0000000000000000     
  -86.424999999999997          0.0000000000000000     
  -86.400000000000006          0.0000000000000000     
  -86.375000000000000          0.0000000000000000     
  -86.349999999999994          0.0000000000000000     
  -86.325000000000003          0.0000000000000000     
  -86.299999999999997          0.0000000000000000     
  -86.275000000000006          0.0000000000000000     
  -86.250000000000000          0.0000000000000000     
  -86.224999999999994          0.0000000000000000     
  -86.200000000000003          0.0000000000000000     
  -86.174999999999997          0.0000000000000000     
  -86.150000000000006          0.0000000000000000     
  -86.125000000000000          0.0000000000000000     
  -86.099999999999994          0.0000000000000000     
  -86.075000000000003          0.0000000000000000     
  -86.049999999999997          0.0000000000000000     
  -86.025000000000006          0.0000000000000000     
  -86.000000000000000          0.0000000000000000     
  -85.974999999999994          0.0000000000000000     
  -85.950000000000003          0.0000000000000000     
  -85.924999999999997          0.0000000000000000     
  -85.900000000000006          0.0000000000000000     
  -85.875000000000000          0.0000000000000000     
  -85.849999999999994          0.0000000000000000     
  -85.825000000000003          0.0000000000000000     
  -85.799999999999997          0.0000000000000000     
  -85.775000000000006          0.0000000000000000     
  -85.750000000000000          0.0000000000000000     
  -85.724999999999994          0.0000000000000000     
  -85.700000000000003          0.0000000000000000     
  -85.674999999999997          0.0000000000000000     
  -85.650000000000006          0.0000000000000000     
  -85.625000000000000          0.0000000000000000     
  -85.599999999999994          0.0000000000000000     
  -85.575000000000003          0.0000000000000000     
  -85.549999999999997          0.0000000000000000     
  -85.525000000000006          0.0000000000000000     
  -85.500000000000000          0.0000000000000000     
  -85.474999999999994          0.0000000000000000     
  -85.450000000000003          0.0000000000000000     
  -85.424999999999997          0.0000000000000000     
  -85.400000000000006          0.0000000000000000     
  -85.375000000000000          0.0000000000000000     
  -85.349999999999994          0.0000000000000000     
  -85.325000000000003          0.0000000000000000     
  -85.299999999999997          0.0000000000000000     
  -85.275000000000006          0.0000000000000000     
  -85.250000000000000          0.0000000000000000     
  -85.224999999999994          0.0000000000000000     
  -85.200000000000003          0.0000000000000000     
  -85.174999999999997          0.0000000000000000     
  -85.150000000000006          0.0000000000000000     
  -85.125000000000000          0.0000000000000000     
  -85.099999999999994          0.0000000000000000     
  -85.075000000000003          0.0000000000000000     
  -85.049999999999997          0.0000000000000000     
  -85.025000000000006          0.0000000000000000     
  -85.000000000000000          0.0000000000000000     
  -84.974999999999994          0.0000000000000000     
  -84.950000000000003          0.0000000000000000     
  -84.924999999999997          0.0000000000000000     
  -84.900000000000006          0.0000000000000000     
  -84.875000000000000          0.0000000000000000     
  -84.849999999999994          0.0000000000000000     
  -84.825000000000003          0.0000000000000000     
  -84.799999999999997          0.0000000000000000     
  -84.775000000000006          0.0000000000000000     
  -84.750000000000000          0.0000000000000000     
  -84.724999999999994          0.0000000000000000     
  -84.700000000000003          0.0000000000000000     
  -84.674999999999997          0.0000000000000000     
  -84.650000000000006          0.0000000000000000     
  -84.625000000000000          0.0000000000000000     
  -84.599999999999994          0.0000000000000000     
  -84.575000000000003          0.0000000000000000     
  -84.549999999999997          0.0000000000000000     
  -84.525000000000006          0.0000000000000000     
  -84.500000000000000          0.0000000000000000     
  -84.474999999999994          0.0000000000000000     
  -84.450000000000003          0.0000000000000000     
  -84.424999999999997          0.0000000000000000     
  -84.400000000000006          0.0000000000000000     
  -84.375000000000000          0.0000000000000000     
  -84.349999999999994          0.0000000000000000     
  -84.325000000000003          0.0000000000000000     
  -84.299999999999997          0.0000000000000000     
  -84.275000000000006          0.0000000000000000     
  -84.250000000000000          0.0000000000000000     
  -84.224999999999994          0.0000000000000000     
  -84.200000000000003          0.0000000000000000     
  -84.174999999999997          0.0000000000000000     
  -84.150000000000006          0.0000000000000000     
  -84.125000000000000          0.0000000000000000     
  -84.099999999999994          0.0000000000000000     
  -84.075000000000003          0.0000000000000000     
  -84.049999999999997          0.0000000000000000     
  -84.025000000000006          0.0000000000000000     
  -84.000000000000000          0.0000000000000000     
  -83.974999999999994          0.0000000000000000     
  -83.950000000000003          0.0000000000000000     
  -83.924999999999997          0.0000000000000000     
  -83.900000000000006          0.0000000000000000     
  -83.875000000000000          0.0000000000000000     
  -83.849999999999994          0.0000000000000000     
  -83.825000000000003          0.0000000000000000     
  -83.799999999999997          0.0000000000000000     
  -83.775000000000006          0.0000000000000000     
  -83.750000000000000          0.0000000000000000     
  -83.724999999999994          0.0000000000000000     
  -83.700000000000003          0.0000000000000000     
  -83.674999999999997          0.0000000000000000     
  -83.650000000000006          0.0000000000000000     
  -83.625000000000000          0.0000000000000000     
  -83.599999999999994          0.0000000000000000     
  -83.575000000000003          0.0000000000000000     
  -83.549999999999997          0.0000000000000000     
  -83.525000000000006          0.0000000000000000     
  -83.500000000000000          0.0000000000000000     
  -83.474999999999994          0.0000000000000000     
  -83.450000000000003          0.0000000000000000     
  -83.424999999999997          0.0000000000000000     
  -83.400000000000006          0.0000000000000000     
  -83.375000000000000          0.0000000000000000     
  -83.349999999999994          0.0000000000000000     
  -83.325000000000003          0.0000000000000000     
  -83.299999999999997          0.0000000000000000     
  -83.275000000000006          0.0000000000000000     
  -83.250000000000000          0.0000000000000000     
  -83.224999999999994          0.0000000000000000     
  -83.200000000000003          0.0000000000000000     
  -83.174999999999997          0.0000000000000000     
  -83.150000000000006          0.0000000000000000     
  -83.125000000000000          0.0000000000000000     
  -83.099999999999994          0.0000000000000000     
  -83.075000000000003          0.0000000000000000     
  -83.049999999999997          0.0000000000000000     
  -83.025000000000006          0.0000000000000000     
  -83.000000000000000          0.0000000000000000     
  -82.974999999999994          0.0000000000000000     
  -82.950000000000003          0.0000000000000000     
  -82.924999999999997          0.0000000000000000     
  -82.900000000000006          0.0000000000000000     
  -82.875000000000000          0.0000000000000000     
  -82.849999999999994          0.0000000000000000     
  -82.825000000000003          0.0000000000000000     
  -82.799999999999997          0.0000000000000000     
  -82.775000000000006          0.0000000000000000     
  -82.750000000000000          0.0000000000000000     
  -82.724999999999994          0.0000000000000000     
  -82.700000000000003          0.0000000000000000     
  -82.674999999999997          0.0000000000000000     
  -82.650000000000006          0.0000000000000000     
  -82.625000000000000          0.0000000000000000     
  -82.599999999999994          0.0000000000000000     
  -82.575000000000003          0.0000000000000000     
  -82.549999999999997          0.0000000000000000     
  -82.525000000000006          0.0000000000000000     
  -82.500000000000000          0.0000000000000000     
  -82.474999999999994          0.0000000000000000     
  -82.450000000000003          0.0000000000000000     
  -82.424999999999997          0.0000000000000000     
  -82.400000000000006          0.0000000000000000     
  -82.375000000000000          0.0000000000000000     
  -82.349999999999994          0.0000000000000000     
  -82.325000000000003          0.0000000000000000     
  -82.299999999999997          0.0000000000000000     
  -82.275000000000006          0.0000000000000000     
  -82.250000000000000          0.0000000000000000     
  -82.224999999999994          0.0000000000000000     
  -82.200000000000003          0.0000000000000000     
  -82.174999999999997          0.0000000000000000     
  -82.150000000000006          0.0000000000000000     
  -82.125000000000000          0.0000000000000000     
  -82.099999999999994          0.0000000000000000     
  -82.075000000000003          0.0000000000000000     
  -82.049999999999997          0.0000000000000000     
  -82.025000000000006          0.0000000000000000     
  -82.000000000000000          0.0000000000000000     
  -81.974999999999994          0.0000000000000000     
  -81.950000000000003          0.0000000000000000     
  -81.924999999999997          0.0000000000000000     
  -81.900000000000006          0.0000000000000000     
  -81.875000000000000          0.0000000000000000     
  -81.849999999999994          0.0000000000000000     
  -81.825000000000003          0.0000000000000000     
  -81.799999999999997          0.0000000000000000     
  -81.775000000000006          0.0000000000000000     
  -81.750000000000000          0.0000000000000000     
  -81.724999999999994          0.0000000000000000     
  -81.700000000000003          0.0000000000000000     
  -81.674999999999997          0.0000000000000000     
  -81.650000000000006          0.0000000000000000     
  -81.625000000000000          0.0000000000000000     
  -81.599999999999994          0.0000000000000000     
  -81.575000000000003          0.0000000000000000     
  -81.549999999999997          0.0000000000000000     
  -81.525000000000006          0.0000000000000000     
  -81.500000000000000          0.0000000000000000     
  -81.474999999999994          0.0000000000000000     
  -81.450000000000003          0.0000000000000000     
  -81.424999999999997          0.0000000000000000     
  -81.400000000000006          0.0000000000000000     
  -81.375000000000000          0.0000000000000000     
  -81.349999999999994          0.0000000000000000     
  -81.325000000000003          0.0000000000000000     
  -81.299999999999997          0.0000000000000000     
  -81.275000000000006          0.0000000000000000     
  -81.250000000000000          0.0000000000000000     
  -81.224999999999994          0.0000000000000000     
  -81.200000000000003          0.0000000000000000     
  -81.174999999999997          0.0000000000000000     
  -81.150000000000006          0.0000000000000000     
  -81.125000000000000          0.0000000000000000     
  -81.099999999999994          0.0000000000000000     
  -81.075000000000003          0.0000000000000000     
  -81.049999999999997          0.0000000000000000     
  -81.025000000000006          0.0000000000000000     
  -81.000000000000000          0.0000000000000000     
  -80.974999999999994          0.0000000000000000     
  -80.950000000000003          0.0000000000000000     
  -80.924999999999997          0.0000000000000000     
  -80.900000000000006          0.0000000000000000     
  -80.875000000000000          0.0000000000000000     
  -80.849999999999994          0.0000000000000000     
  -80.825000000000003          0.0000000000000000     
  -80.799999999999997          0.0000000000000000     
  -80.775000000000006          0.0000000000000000     
  -80.750000000000000          0.0000000000000000     
  -80.724999999999994          0.0000000000000000     
  -80.700000000000003          0.0000000000000000     
  -80.674999999999997          0.0000000000000000     
  -80.650000000000006          0.0000000000000000     
  -80.625000000000000          0.0000000000000000     
  -80.599999999999994          0.0000000000000000     
  -80.575000000000003          0.0000000000000000     
  -80.549999999999997          0.0000000000000000     
  -80.525000000000006          0.0000000000000000     
  -80.500000000000000          0.0000000000000000     
  -80.474999999999994          0.0000000000000000     
  -80.450000000000003          0.0000000000000000     
  -80.424999999999997          0.0000000000000000     
  -80.400000000000006          0.0000000000000000     
  -80.375000000000000          0.0000000000000000     
  -80.349999999999994          0.0000000000000000     
  -80.325000000000003          0.0000000000000000     
  -80.299999999999997          0.0000000000000000     
  -80.275000000000006          0.0000000000000000     
  -80.250000000000000          0.0000000000000000     
  -80.224999999999994          0.0000000000000000     
  -80.200000000000003          0.0000000000000000     
  -80.174999999999997          0.0000000000000000     
  -80.150000000000006          0.0000000000000000     
  -80.125000000000000          0.0000000000000000     
  -80.099999999999994          0.0000000000000000     
  -80.075000000000003          0.0000000000000000     
  -80.049999999999997          0.0000000000000000     
  -80.025000000000006          0.0000000000000000     
  -80.000000000000000          0.0000000000000000     
  -79.974999999999994          0.0000000000000000     
  -79.950000000000003          0.0000000000000000     
  -79.924999999999997          0.0000000000000000     
  -79.900000000000006          0.0000000000000000     
  -79.875000000000000          0.0000000000000000     
  -79.849999999999994          0.0000000000000000     
  -79.825000000000003          0.0000000000000000     
  -79.799999999999997          0.0000000000000000     
  -79.775000000000006          0.0000000000000000     
  -79.750000000000000          0.0000000000000000     
  -79.724999999999994          0.0000000000000000     
  -79.700000000000003          0.0000000000000000     
  -79.674999999999997          0.0000000000000000     
  -79.650000000000006          0.0000000000000000     
  -79.625000000000000          0.0000000000000000     
  -79.599999999999994          0.0000000000000000     
  -79.575000000000003          0.0000000000000000     
  -79.549999999999997          0.0000000000000000     
  -79.525000000000006          0.0000000000000000     
  -79.500000000000000          0.0000000000000000     
  -79.474999999999994          0.0000000000000000     
  -79.450000000000003          0.0000000000000000     
  -79.424999999999997          0.0000000000000000     
  -79.400000000000006          0.0000000000000000     
  -79.375000000000000          0.0000000000000000     
  -79.349999999999994          0.0000000000000000     
  -79.325000000000003          0.0000000000000000     
  -79.299999999999997          0.0000000000000000     
  -79.275000000000006          0.0000000000000000     
  -79.250000000000000          0.0000000000000000     
  -79.224999999999994          0.0000000000000000     
  -79.200000000000003          0.0000000000000000     
  -79.174999999999997          0.0000000000000000     
  -79.150000000000006          0.0000000000000000     
  -79.125000000000000          0.0000000000000000     
  -79.099999999999994          0.0000000000000000     
  -79.075000000000003          0.0000000000000000     
  -79.049999999999997          0.0000000000000000     
  -79.025000000000006          0.0000000000000000     
  -79.000000000000000          0.0000000000000000     
  -78.974999999999994          0.0000000000000000     
  -78.950000000000003          0.0000000000000000     
  -78.924999999999997          0.0000000000000000     
  -78.900000000000006          0.0000000000000000     
  -78.875000000000000          0.0000000000000000     
  -78.849999999999994          0.0000000000000000     
  -78.825000000000003          0.0000000000000000     
  -78.799999999999997          0.0000000000000000     
  -78.775000000000006          0.0000000000000000     
  -78.750000000000000          0.0000000000000000     
  -78.724999999999994          0.0000000000000000     
  -78.700000000000003          0.0000000000000000     
  -78.674999999999997          0.0000000000000000     
  -78.650000000000006          0.0000000000000000     
  -78.625000000000000          0.0000000000000000     
  -78.599999999999994          0.0000000000000000     
  -78.575000000000003          0.0000000000000000     
  -78.549999999999997          0.0000000000000000     
  -78.525000000000006          0.0000000000000000     
  -78.500000000000000          0.0000000000000000     
  -78.474999999999994          0.0000000000000000     
  -78.450000000000003          0.0000000000000000     
  -78.424999999999997          0.0000000000000000     
  -78.400000000000006          0.0000000000000000     
  -78.375000000000000          0.0000000000000000     
  -78.349999999999994          0.0000000000000000     
  -78.325000000000003          0.0000000000000000     
  -78.299999999999997          0.0000000000000000     
  -78.275000000000006          0.0000000000000000     
  -78.250000000000000          0.0000000000000000     
  -78.224999999999994          0.0000000000000000     
  -78.200000000000003          0.0000000000000000     
  -78.174999999999997          0.0000000000000000     
  -78.150000000000006          0.0000000000000000     
  -78.125000000000000          0.0000000000000000     
  -78.099999999999994          0.0000000000000000     
  -78.075000000000003          0.0000000000000000     
  -78.049999999999997          0.0000000000000000     
  -78.025000000000006          0.0000000000000000     
  -78.000000000000000          0.0000000000000000     
  -77.974999999999994          0.0000000000000000     
  -77.950000000000003          0.0000000000000000     
  -77.924999999999997          0.0000000000000000     
  -77.900000000000006          0.0000000000000000     
  -77.875000000000000          0.0000000000000000     
  -77.849999999999994          0.0000000000000000     
  -77.825000000000003          0.0000000000000000     
  -77.799999999999997          0.0000000000000000     
  -77.775000000000006          0.0000000000000000     
  -77.750000000000000          0.0000000000000000     
  -77.724999999999994          0.0000000000000000     
  -77.700000000000003          0.0000000000000000     
  -77.674999999999997          0.0000000000000000     
  -77.650000000000006          0.0000000000000000     
  -77.625000000000000          0.0000000000000000     
  -77.599999999999994          0.0000000000000000     
  -77.575000000000003          0.0000000000000000     
  -77.549999999999997          0.0000000000000000     
  -77.525000000000006          0.0000000000000000     
  -77.500000000000000          0.0000000000000000     
  -77.474999999999994          0.0000000000000000     
  -77.450000000000003          0.0000000000000000     
  -77.424999999999997          0.0000000000000000     
  -77.400000000000006          0.0000000000000000     
  -77.375000000000000          0.0000000000000000     
  -77.349999999999994          0.0000000000000000     
  -77.325000000000003          0.0000000000000000     
  -77.299999999999997          0.0000000000000000     
  -77.275000000000006          0.0000000000000000     
  -77.250000000000000          0.0000000000000000     
  -77.224999999999994          0.0000000000000000     
  -77.200000000000003          0.0000000000000000     
  -77.174999999999997          0.0000000000000000     
  -77.150000000000006          0.0000000000000000     
  -77.125000000000000          0.0000000000000000     
  -77.099999999999994          0.0000000000000000     
  -77.075000000000003          0.0000000000000000     
  -77.049999999999997          0.0000000000000000     
  -77.025000000000006          0.0000000000000000     
  -77.000000000000000          0.0000000000000000     
  -76.974999999999994          0.0000000000000000     
  -76.950000000000003          0.0000000000000000     
  -76.924999999999997          0.0000000000000000     
  -76.900000000000006          0.0000000000000000     
  -76.875000000000000          0.0000000000000000     
  -76.849999999999994          0.0000000000000000     
  -76.825000000000003          0.0000000000000000     
  -76.799999999999997          0.0000000000000000     
  -76.775000000000006          0.0000000000000000     
  -76.750000000000000          0.0000000000000000     
  -76.724999999999994          0.0000000000000000     
  -76.700000000000003          0.0000000000000000     
  -76.674999999999997          0.0000000000000000     
  -76.650000000000006          0.0000000000000000     
  -76.625000000000000          0.0000000000000000     
  -76.599999999999994          0.0000000000000000     
  -76.575000000000003          0.0000000000000000     
  -76.549999999999997          0.0000000000000000     
  -76.525000000000006          0.0000000000000000     
  -76.500000000000000          0.0000000000000000     
  -76.474999999999994          0.0000000000000000     
  -76.450000000000003          0.0000000000000000     
  -76.424999999999997          0.0000000000000000     
  -76.400000000000006          0.0000000000000000     