  -90.000000000000000          0.0000000000000000     
  -89.984999999999999          0.0000000000000000     
  -89.969999999999999          0.0000000000000000     
  -89.954999999999998          0.0000000000000000     
  -89.939999999999998          0.0000000000000000     
  -89.924999999999997          0.0000000000000000     
  -89.909999999999997          0.0000000000000000     
  -89.894999999999996          0.0000000000000000     
  -89.879999999999995          0.0000000000000000     
  -89.864999999999995          0.0000000000000000     
  -89.849999999999994          0.0000000000000000     
  -89.834999999999994          0.0000000000000000     
  -89.819999999999993          0.0000000000000000     
  -89.805000000000007          0.0000000000000000     
  -89.790000000000006          0.0000000000000000     
  -89.775000000000006          0.0000000000000000     
  -89.760000000000005          0.0000000000000000     
  -89.745000000000005          0.0000000000000000     
  -89.730000000000004          0.0000000000000000     
  -89.715000000000003          0.0000000000000000     
  -89.700000000000003          0.0000000000000000     
  -89.685000000000002          0.0000000000000000     
  -89.670000000000002          0.0000000000000000     
  -89.655000000000001          0.0000000000000000     
  -89.640000000000001          0.0000000000000000     
  -89.625000000000000          0.0000000000000000     
  -89.609999999999999          0.0000000000000000     
  -89.594999999999999          0.0000000000000000     
  -89.579999999999998          0.0000000000000000     
  -89.564999999999998          0.0000000000000000     
  -89.549999999999997          0.0000000000000000     
  -89.534999999999997          0.0000000000000000     
  -89.519999999999996          0.0000000000000000     
  -89.504999999999995          0.0000000000000000     
  -89.489999999999995          0.0000000000000000     
  -89.474999999999994          0.0000000000000000     
  -89.459999999999994          0.0000000000000000     
  -89.444999999999993          0.0000000000000000     
  -89.430000000000007          0.0000000000000000     
  -89.415000000000006          0.0000000000000000     
  -89.400000000000006          0.0000000000000000     
  -89.385000000000005          0.0000000000000000     
  -89.370000000000005          0.0000000000000000     
  -89.355000000000004          0.0000000000000000     
  -89.340000000000003          0.0000000000000000     
  -89.325000000000003          0.0000000000000000     
  -89.310000000000002          0.0000000000000000     
  -89.295000000000002          0.0000000000000000     
  -89.280000000000001          0.0000000000000000     
  -89.265000000000001          0.0000000000000000     
  -89.250000000000000          0.0000000000000000     
  -89.234999999999999          0.0000000000000000     
  -89.219999999999999          0.0000000000000000     
  -89.204999999999998          0.0000000000000000     
  -89.189999999999998          0.0000000000000000     
  -89.174999999999997          0.0000000000000000     
  -89.159999999999997          0.0000000000000000     
  -89.144999999999996          0.0000000000000000     
  -89.129999999999995          0.0000000000000000     
  -89.114999999999995          0.0000000000000000     
  -89.099999999999994          0.0000000000000000     
  -89.084999999999994          0.0000000000000000     
  -89.069999999999993          0.0000000000000000     
  -89.055000000000007          0.0000000000000000     
  -89.040000000000006          0.0000000000000000     
  -89.025000000000006          0.0000000000000000     
  -89.010000000000005          0.0000000000000000     
  -88.995000000000005          0.0000000000000000     
  -88.980000000000004          0.0000000000000000     
  -88.965000000000003          0.0000000000000000     
  -88.950000000000003          0.0000000000000000     
  -88.935000000000002          0.0000000000000000     
  -88.920000000000002          0.0000000000000000     
  -88.905000000000001          0.0000000000000000     
  -88.890000000000001          0.0000000000000000     
  -88.875000000000000          0.0000000000000000     
  -88.859999999999999          0.0000000000000000     
  -88.844999999999999          0.0000000000000000     
  -88.829999999999998          0.0000000000000000     
  -88.814999999999998          0.0000000000000000     
  -88.799999999999997          0.0000000000000000     
  -88.784999999999997          0.0000000000000000     
  -88.769999999999996          0.0000000000000000     
  -88.754999999999995          0.0000000000000000     
  -88.739999999999995          0.0000000000000000     
  -88.724999999999994          0.0000000000000000     
  -88.709999999999994          0.0000000000000000     
  -88.694999999999993          0.0000000000000000     
  -88.680000000000007          0.0000000000000000     
  -88.665000000000006          0.0000000000000000     
  -88.650000000000006          0.0000000000000000     
  -88.635000000000005          0.0000000000000000     
  -88.620000000000005          0.0000000000000000     
  -88.605000000000004          0.0000000000000000     
  -88.590000000000003          0.0000000000000000     
  -88.575000000000003          0.0000000000000000     
  -88.560000000000002          0.0000000000000000     
  -88.545000000000002          0.0000000000000000     
  -88.530000000000001          0.0000000000000000     
  -88.515000000000001          0.0000000000000000     
  -88.500000000000000          0.0000000000000000     
  -88.484999999999999          0.0000000000000000     
  -88.469999999999999          0.0000000000000000     
  -88.454999999999998          0.0000000000000000     
  -88.439999999999998          0.0000000000000000     
  -88.424999999999997          0.0000000000000000     
  -88.409999999999997          0.0000000000000000     
  -88.394999999999996          0.0000000000000000     
  -88.379999999999995          0.0000000000000000     
  -88.364999999999995          0.0000000000000000     
  -88.349999999999994          0.0000000000000000     
  -88.334999999999994          0.0000000000000000     
  -88.319999999999993          0.0000000000000000     
  -88.305000000000007          0.0000000000000000     
  -88.290000000000006          0.0000000000000000     
  -88.275000000000006          0.0000000000000000     
  -88.260000000000005          0.0000000000000000     
  -88.245000000000005          0.0000000000000000     
  -88.230000000000004          0.0000000000000000     
  -88.215000000000003          0.0000000000000000     
  -88.200000000000003          0.0000000000000000     
  -88.185000000000002          0.0000000000000000     
  -88.170000000000002          0.0000000000000000     
  -88.155000000000001          0.0000000000000000     
  -88.140000000000001          0.0000000000000000     
  -88.125000000000000          0.0000000000000000     
  -88.109999999999999          0.0000000000000000     
  -88.094999999999999          0.0000000000000000     
  -88.079999999999998          0.0000000000000000     
  -88.064999999999998          0.0000000000000000     
  -88.049999999999997          0.0000000000000000     
  -88.034999999999997          0.0000000000000000     
  -88.019999999999996          0.0000000000000000     
  -88.004999999999995          0.0000000000000000     
  -87.989999999999995          0.0000000000000000     
  -87.974999999999994          0.0000000000000000     
  -87.959999999999994          0.0000000000000000     
  -87.944999999999993          0.0000000000000000     
  -87.930000000000007          0.0000000000000000     
  -87.915000000000006          0.0000000000000000     
  -87.900000000000006          0.0000000000000000     
  -87.885000000000005          0.0000000000000000     
  -87.870000000000005          0.0000000000000000     
  -87.855000000000004          0.0000000000000000     
  -87.840000000000003          0.0000000000000000     
  -87.825000000000003          0.0000000000000000     
  -87.810000000000002          0.0000000000000000     
  -87.795000000000002          0.0000000000000000     
  -87.780000000000001          0.0000000000000000     
  -87.765000000000001          0.0000000000000000     
  -87.750000000000000          0.0000000000000000     
  -87.734999999999999          0.0000000000000000     
  -87.719999999999999          0.0000000000000000     
  -87.704999999999998          0.0000000000000000     
  -87.689999999999998          0.0000000000000000     
  -87.674999999999997          0.0000000000000000     
  -87.659999999999997          0.0000000000000000     
  -87.644999999999996          0.0000000000000000     
  -87.629999999999995          0.0000000000000000     
  -87.614999999999995          0.0000000000000000     
  -87.599999999999994          0.0000000000000000     
  -87.584999999999994          0.0000000000000000     
  -87.569999999999993          0.0000000000000000     
  -87.555000000000007          0.0000000000000000     
  -87.540000000000006          0.0000000000000000     
  -87.525000000000006          0.0000000000000000     
  -87.510000000000005          0.0000000000000000     
  -87.495000000000005          0.0000000000000000     
  -87.480000000000004          0.0000000000000000     
  -87.465000000000003          0.0000000000000000     
  -87.450000000000003          0.0000000000000000     
  -87.435000000000002          0.0000000000000000     
  -87.420000000000002          0.0000000000000000     
  -87.405000000000001          0.0000000000000000     
  -87.390000000000001          0.0000000000000000     
  -87.375000000000000          0.0000000000000000     
  -87.359999999999999          0.0000000000000000     
  -87.344999999999999          0.0000000000000000     
  -87.329999999999998          0.0000000000000000     
  -87.314999999999998          0.0000000000000000     
  -87.299999999999997          0.0000000000000000     
  -87.284999999999997          0.0000000000000000     
  -87.269999999999996          0.0000000000000000     
  -87.254999999999995          0.0000000000000000     
  -87.239999999999995          0.0000000000000000     
  -87.224999999999994          0.0000000000000000     
  -87.209999999999994          0.0000000000000000     
  -87.194999999999993          0.0000000000000000     
  -87.180000000000007          0.0000000000000000     
  -87.165000000000006          0.0000000000000000     
  -87.150000000000006          0.0000000000000000     
  -87.135000000000005          0.0000000000000000     
  -87.120000000000005          0.0000000000000000     
  -87.105000000000004          0.0000000000000000     
  -87.090000000000003          0.0000000000000000     
  -87.075000000000003          0.0000000000000000     
  -87.060000000000002          0.0000000000000000     
  -87.045000000000002          0.0000000000000000     
  -87.030000000000001          0.0000000000000000     
  -87.015000000000001          0.0000000000000000     
  -87.000000000000000          0.0000000000000000     
  -86.984999999999999          0.0000000000000000     
  -86.969999999999999          0.0000000000000000     
  -86.954999999999998          0.0000000000000000     
  -86.939999999999998          0.0000000000000000     
  -86.924999999999997          0.0000000000000000     
  -86.909999999999997          0.0000000000000000     
  -86.894999999999996          0.0000000000000000     
  -86.879999999999995          0.0000000000000000     
  -86.864999999999995          0.0000000000000000     
  -86.849999999999994          0.0000000000000000     
  -86.834999999999994          0.0000000000000000     
  -86.819999999999993          0.0000000000000000     
  -86.805000000000007          0.0000000000000000     
  -86.790000000000006          0.0000000000000000     
  -86.775000000000006          0.0000000000000000     
  -86.760000000000005          0.0000000000000000     
  -86.745000000000005          0.0000000000000000     
  -86.730000000000004          0.0000000000000000     
  -86.715000000000003          0.0000000000000000     
  -86.700000000000003          0.0000000000000000     
  -86.685000000000002          0.0000000000000000     
  -86.670000000000002          0.0000000000000000     
  -86.655000000000001          0.0000000000000000     
  -86.640000000000001          0.0000000000000000     
  -86.625000000000000          0.0000000000000000     
  -86.609999999999999          0.0000000000000000     
  -86.594999999999999          0.0000000000000000     
  -86.579999999999998          0.0000000000000000     
  -86.564999999999998          0.0000000000000000     
  -86.549999999999997          0.0000000000000000     
  -86.534999999999997          0.0000000000000000     
  -86.519999999999996          0.0000000000000000     
  -86.504999999999995          0.0000000000000000     
  -86.489999999999995          0.0000000000000000     
  -86.474999999999994          0.0000000000000000     
  -86.459999999999994          0.0000000000000000     
  -86.444999999999993          0.0000000000000000     
  -86.430000000000007          0.0000000000000000     
  -86.415000000000006          0.0000000000000000     
  -86.400000000000006          0.0000000000000000     
  -86.385000000000005          0.0000000000000000     
  -86.370000000000005          0.0000000000000000     
  -86.355000000000004          0.0000000000000000     
  -86.340000000000003          0.0000000000000000     
  -86.325000000000003          0.0000000000000000     
  -86.310000000000002          0.0000000000000000     
  -86.295000000000002          0.0000000000000000     
  -86.280000000000001          0.0000000000000000     
  -86.265000000000001          0.0000000000000000     
  -86.250000000000000          0.0000000000000000     
  -86.234999999999999          0.0000000000000000     
  -86.219999999999999          0.0000000000000000     
  -86.204999999999998          0.0000000000000000     
  -86.189999999999998          0.0000000000000000     
  -86.174999999999997          0.0000000000000000     
  -86.159999999999997          0.0000000000000000     
  -86.144999999999996          0.0000000000000000     
  -86.129999999999995          0.0000000000000000     
  -86.114999999999995          0.0000000000000000     
  -86.099999999999994          0.0000000000000000     
  -86.084999999999994          0.0000000000000000     
  -86.069999999999993          0.0000000000000000     
  -86.055000000000007          0.0000000000000000     
  -86.040000000000006          0.0000000000000000     
  -86.025000000000006          0.0000000000000000     
  -86.010000000000005          0.0000000000000000     
  -85.995000000000005          0.0000000000000000     
  -85.980000000000004          0.0000000000000000     
  -85.965000000000003          0.0000000000000000     
  -85.950000000000003          0.0000000000000000     
  -85.935000000000002          0.0000000000000000     
  -85.920000000000002          0.0000000000000000     
  -85.905000000000001          0.0000000000000000     
  -85.890000000000001          0.0000000000000000     
  -85.875000000000000          0.0000000000000000     
  -85.859999999999999          0.0000000000000000     
  -85.844999999999999          0.0000000000000000     
  -85.829999999999998          0.0000000000000000     
  -85.814999999999998          0.0000000000000000     
  -85.799999999999997          0.0000000000000000     
  -85.784999999999997          0.0000000000000000     
  -85.769999999999996          0.0000000000000000     
  -85.754999999999995          0.0000000000000000     
  -85.739999999999995          0.0000000000000000     
  -85.724999999999994          0.0000000000000000     
  -85.709999999999994          0.0000000000000000     
  -85.694999999999993          0.0000000000000000     
  -85.680000000000007          0.0000000000000000     
  -85.665000000000006          0.0000000000000000     
  -85.650000000000006          0.0000000000000000     
  -85.635000000000005          0.0000000000000000     
  -85.620000000000005          0.0000000000000000     
  -85.605000000000004          0.0000000000000000     
  -85.590000000000003          0.0000000000000000     
  -85.575000000000003          0.0000000000000000     
  -85.560000000000002          0.0000000000000000     
  -85.545000000000002          0.0000000000000000     
  -85.530000000000001          0.0000000000000000     
  -85.515000000000001          0.0000000000000000     
  -85.500000000000000          0.0000000000000000     
  -85.484999999999999          0.0000000000000000     
  -85.469999999999999          0.0000000000000000     
  -85.454999999999998          0.0000000000000000     
  -85.439999999999998          0.0000000000000000     
  -85.424999999999997          0.0000000000000000     
  -85.409999999999997          0.0000000000000000     
  -85.394999999999996          0.0000000000000000     
  -85.379999999999995          0.0000000000000000     
  -85.364999999999995          0.0000000000000000     
  -85.349999999999994          0.0000000000000000     
  -85.334999999999994          0.0000000000000000     
  -85.319999999999993          0.0000000000000000     
  -85.305000000000007          0.0000000000000000     
  -85.290000000000006          0.0000000000000000     
  -85.275000000000006          0.0000000000000000     
  -85.260000000000005          0.0000000000000000     
  -85.245000000000005          0.0000000000000000     
  -85.230000000000004          0.0000000000000000     
  -85.215000000000003          0.0000000000000000     
  -85.200000000000003          0.0000000000000000     
  -85.185000000000002          0.0000000000000000     
  -85.170000000000002          0.0000000000000000     
  -85.155000000000001          0.0000000000000000     
  -85.140000000000001          0.0000000000000000     
  -85.125000000000000          0.0000000000000000     
  -85.109999999999999          0.0000000000000000     
  -85.094999999999999          0.0000000000000000     
  -85.079999999999998          0.0000000000000000     
  -85.064999999999998          0.0000000000000000     
  -85.049999999999997          0.0000000000000000     
  -85.034999999999997          0.0000000000000000     
  -85.019999999999996          0.0000000000000000     
  -85.004999999999995          0.0000000000000000     
  -84.989999999999995          0.0000000000000000     
  -84.974999999999994          0.0000000000000000     
  -84.959999999999994          0.0000000000000000     
  -84.944999999999993          0.0000000000000000     
  -84.930000000000007          0.0000000000000000     
  -84.915000000000006          0.0000000000000000     
  -84.900000000000006          0.0000000000000000     
  -84.885000000000005          0.0000000000000000     
  -84.870000000000005          0.0000000000000000     
  -84.855000000000004          0.0000000000000000     
  -84.840000000000003          0.0000000000000000     
  -84.825000000000003          0.0000000000000000     
  -84.810000000000002          0.0000000000000000     
  -84.795000000000002          0.0000000000000000     
  -84.780000000000001          0.0000000000000000     
  -84.765000000000001          0.0000000000000000     
  -84.750000000000000          0.0000000000000000     
  -84.734999999999999          0.0000000000000000     
  -84.719999999999999          0.0000000000000000     
  -84.704999999999998          0.0000000000000000     
  -84.689999999999998          0.0000000000000000     
  -84.674999999999997          0.0000000000000000     
  -84.659999999999997          0.0000000000000000     
  -84.644999999999996          0.0000000000000000     
  -84.629999999999995          0.0000000000000000     
  -84.614999999999995          0.0000000000000000     
  -84.599999999999994          0.0000000000000000     
  -84.584999999999994          0.0000000000000000     
  -84.569999999999993          0.0000000000000000     
  -84.555000000000007          0.0000000000000000     
  -84.540000000000006          0.0000000000000000     
  -84.525000000000006          0.0000000000000000     
  -84.510000000000005          0.0000000000000000     
  -84.495000000000005          0.0000000000000000     
  -84.480000000000004          0.0000000000000000     
  -84.465000000000003          0.0000000000000000     
  -84.450000000000003          0.0000000000000000     
  -84.435000000000002          0.0000000000000000     
  -84.420000000000002          0.0000000000000000     
  -84.405000000000001          0.0000000000000000     
  -84.390000000000001          0.0000000000000000     
  -84.375000000000000          0.0000000000000000     
  -84.359999999999999          0.0000000000000000     
  -84.344999999999999          0.0000000000000000     
  -84.329999999999998          0.0000000000000000     
  -84.314999999999998          0.0000000000000000     
  -84.299999999999997          0.0000000000000000     
  -84.284999999999997          0.0000000000000000     
  -84.269999999999996          0.0000000000000000     
  -84.254999999999995          0.0000000000000000     
  -84.239999999999995          0.0000000000000000     
  -84.224999999999994          0.0000000000000000     
  -84.209999999999994          0.0000000000000000     
  -84.194999999999993          0.0000000000000000     
  -84.180000000000007          0.0000000000000000     
  -84.165000000000006          0.0000000000000000     
  -84.150000000000006          0.0000000000000000     
  -84.135000000000005          0.0000000000000000     
  -84.120000000000005          0.0000000000000000     
  -84.105000000000004          0.0000000000000000     
  -84.090000000000003          1.3636674348444527E-038
  -84.075000000000003          3.1766861653873230E-038
  -84.060000000000002          5.2995633754780112E-038
  -84.045000000000002          7.5460258615522837E-038
  -84.030000000000001          9.9196337624886042E-038
  -84.015000000000001          1.2418897778279088E-037
  -84.000000000000000          1.5037967207575487E-037
  -83.984999999999999          1.7767168606818873E-037
  -83.969999999999999          2.0548604807618431E-037
  -83.954999999999998          2.3330041008417989E-037
  -83.939999999999998          2.6111477209217547E-037
  -83.924999999999997          2.8948794950696835E-037
  -83.909999999999997          3.1714639744262930E-037
  -83.894999999999996          3.4164941270671133E-037
  -83.879999999999995          3.6173591636442384E-037
  -83.864999999999995          3.7607137902067015E-037
  -83.849999999999994          3.7607137902067015E-037
  -83.834999999999994          3.7607137902067015E-037
  -83.819999999999993          3.7607137902067015E-037
  -83.805000000000007          3.5336063570284727E-037
  -83.790000000000006          3.1738975253913780E-037
  -83.775000000000006          2.6651990537032001E-037
  -83.760000000000005          2.0527883526966767E-037
  -83.745000000000005          1.3866989521963411E-037
  -83.730000000000004          6.6714861398354943E-038
  -83.715000000000003          0.0000000000000000     
  -83.700000000000003         -8.4006363165094456E-038
  -83.685000000000002         -1.7453078205908794E-037
  -83.670000000000002         -2.7169040523359801E-037
  -83.655000000000001         -3.8071691884804893E-037
  -83.640000000000001         -5.0620981045708791E-037
  -83.625000000000000         -6.4674260306558315E-037
  -83.609999999999999         -8.4713770018971225E-037
  -83.594999999999999         -1.1016243529664068E-036
  -83.579999999999998         -1.4178154908510997E-036
  -83.564999999999998         -1.8503467768744722E-036
  -83.549999999999997         -2.4034981576997546E-036
  -83.534999999999997         -3.0837771288706187E-036
  -83.519999999999996         -3.8817630186503262E-036
  -83.504999999999995         -4.7232444952978623E-036
  -83.489999999999995         -5.5882362176942511E-036
  -83.474999999999994         -6.4635910018602182E-036
  -83.459999999999994         -7.3136863610614484E-036
  -83.444999999999993         -8.0911893478738552E-036
  -83.430000000000007         -8.8297354302301167E-036
  -83.415000000000006         -9.5155256073676808E-036
  -83.400000000000006         -1.0133650242992335E-035
  -83.385000000000005         -1.0668239732889090E-035
  -83.370000000000005         -1.1092112205124809E-035
  -83.355000000000004         -1.1342312992153560E-035
  -83.340000000000003         -1.1380505796583078E-035
  -83.325000000000003         -1.1175768602406229E-035
  -83.310000000000002         -1.0713219036991722E-035
  -83.295000000000002         -9.9995051293036181E-036
  -83.280000000000001         -8.9359037209720781E-036
  -83.265000000000001         -7.5632701283503878E-036
  -83.250000000000000         -5.8104196450142705E-036
  -83.234999999999999         -3.5984993006102573E-036
  -83.219999999999999         -8.4198325360164156E-037
  -83.204999999999998          2.3446368062823818E-036
  -83.189999999999998          5.9220553763692942E-036
  -83.174999999999997          9.7936314708618139E-036
  -83.159999999999997          1.3918392647275812E-035
  -83.144999999999996          1.8131736334382331E-035
  -83.129999999999995          2.2342439750974307E-035
  -83.114999999999995          2.6436827771963677E-035
  -83.099999999999994          3.0302605674564003E-035
  -83.084999999999994          3.3819626801067337E-035
  -83.069999999999993          3.6863144109380069E-035
  -83.055000000000007          3.9298802268623057E-035
  -83.040000000000006          4.1051373658146632E-035
  -83.025000000000006          4.1986012201139058E-035
  -83.010000000000005          4.1972506643485323E-035
  -82.995000000000005          4.0932108047229951E-035
  -82.980000000000004          3.8721596086255298E-035
  -82.965000000000003          3.5247450657020725E-035
  -82.950000000000003          3.0428520749374374E-035
  -82.935000000000002          2.4295955815669331E-035
  -82.920000000000002          1.6772255306726018E-035
  -82.905000000000001          7.8809255222368107E-036
  -82.890000000000001         -2.4446340027952110E-036
  -82.875000000000000         -1.4221626280941362E-035
  -82.859999999999999         -2.7330734402550779E-035
  -82.844999999999999         -4.1683761494268324E-035
  -82.829999999999998         -5.7275830230290232E-035
  -82.814999999999998         -7.3907927350723625E-035
  -82.799999999999997         -9.1357251332311453E-035
  -82.784999999999997         -1.0943125757792147E-034
  -82.769999999999996         -1.2784899260621382E-034
  -82.754999999999995         -1.4632272432828851E-034
  -82.739999999999995         -1.6452988056389059E-034
  -82.724999999999994         -1.8211117789317596E-034
  -82.709999999999994         -1.9866132331272537E-034
  -82.694999999999993         -2.1371681159399241E-034
  -82.680000000000007         -2.2681934917283765E-034
  -82.665000000000006         -2.3747897071838416E-034
  -82.650000000000006         -2.4518672391092436E-034
  -82.635000000000005         -2.4942709019277537E-034
  -82.620000000000005         -2.4965376315616733E-034
  -82.605000000000004         -2.4531497218130900E-034
  -82.590000000000003         -2.3580839120777414E-034
  -82.575000000000003         -2.2064947319895916E-034
  -82.560000000000002         -1.9933087295633924E-034
  -82.545000000000002         -1.7137604461091354E-034
  -82.530000000000001         -1.3632248164515637E-034
  -82.515000000000001         -9.3793532251012762E-035
  -82.500000000000000         -4.3427232560094493E-035
  -82.484999999999999          1.5003749023689404E-035
  -82.469999999999999          8.1648373979896072E-035
  -82.454999999999998          1.5650718901671358E-034
  -82.439999999999998          2.3944689060667971E-034
  -82.424999999999997          3.3014314447595701E-034
  -82.409999999999997          4.2809966012387065E-034
  -82.394999999999996          5.3261084247456475E-034
  -82.379999999999995          6.4273946437199895E-034
  -82.364999999999995          7.5730034282050627E-034
  -82.349999999999994          8.7484229330979814E-034
  -82.334999999999994          9.9362168119207087E-034
  -82.319999999999993          1.1116005390543344E-033
  -82.305000000000007          1.2264538676403568E-033
  -82.290000000000006          1.3355468147298693E-033
  -82.275000000000006          1.4359462464110816E-033
  -82.260000000000005          1.5244316755047255E-033
  -82.245000000000005          1.5975144551827511E-033
  -82.230000000000004          1.6514973802053338E-033
  -82.215000000000003          1.6824191264456987E-033
  -82.200000000000003          1.6862010958484771E-033
  -82.185000000000002          1.6586653243514573E-033
  -82.170000000000002          1.5956116237023575E-033
  -82.155000000000001          1.4928944477691097E-033
  -82.140000000000001          1.3465179422783837E-033
  -82.125000000000000          1.1527410046231913E-033
  -82.109999999999999          9.0819125171361875E-034
  -82.094999999999999          6.0998729893996104E-034
  -82.079999999999998          2.5588404392764373E-034
  -82.064999999999998         -1.5556961747756261E-034
  -82.049999999999997         -6.2489472544254736E-034
  -82.034999999999997         -1.1515798366097696E-033
  -82.019999999999996         -1.7338662897483669E-033
  -82.004999999999995         -2.3686194638679785E-033
  -81.989999999999995         -3.0511849523523250E-033
  -81.974999999999994         -3.7752632075069529E-033
  -81.960000000000008         -4.5327749097218668E-033
  -81.944999999999993         -5.3137854786936875E-033
  -81.930000000000007         -6.1064271969249101E-033
  -81.915000000000006         -6.8968531083048326E-033
  -81.900000000000006         -7.6692315079797868E-033
  -81.885000000000005         -8.4057852479454932E-033
  -81.870000000000005         -9.0868703482317729E-033
  -81.855000000000004         -9.6911104440689226E-033
  -81.840000000000003         -1.0195583395615908E-032