  -90.000000000000000          0.0000000000000000     
  -89.984999999999999          0.0000000000000000     
  -89.969999999999999          0.0000000000000000     
  -89.954999999999998          0.0000000000000000     
  -89.939999999999998          0.0000000000000000     
  -89.924999999999997          0.0000000000000000     
  -89.909999999999997          0.0000000000000000     
  -89.894999999999996          0.0000000000000000     
  -89.879999999999995          0.0000000000000000     
  -89.864999999999995          1.5304125353734257E-037
  -89.849999999999994          3.0360563917147088E-036
  -89.834999999999994          2.9779085949278354E-035
  -89.819999999999993          2.0152695813483933E-034
  -89.805000000000007          1.0702220358794360E-033
  -89.790000000000006          4.7443458931126316E-033
  -89.775000000000006          1.8241249337031270E-032
  -89.760000000000005          6.2442741868363750E-032
  -89.745000000000005          1.9394034606363609E-031
  -89.730000000000004          5.5433595841839978E-031
  -89.715000000000003          1.4742121037278240E-030
  -89.700000000000003          3.6796057677914157E-030
  -89.685000000000002          8.6804393502008550E-030
  -89.670000000000002          1.9466011912215871E-029
  -89.655000000000001          4.1694418245587274E-029
  -89.640000000000001          8.5640621745089951E-029
  -89.625000000000000          1.6925731982280981E-028
  -89.609999999999999          3.2279252721173317E-028
  -89.594999999999999          5.9547654616813950E-028
  -89.579999999999998          1.0648024661594790E-027
  -89.564999999999998          1.8488257242496817E-027
  -89.549999999999997          3.1216244836536018E-027
  -89.534999999999997          5.1314881883541833E-027
  -89.519999999999996          8.2204182778648619E-027
  -89.504999999999995          1.2841968365193915E-026
  -89.489999999999995          1.9572147504038621E-026
  -89.474999999999994          2.9104872105221591E-026
  -89.459999999999994          4.2219068356938708E-026
  -89.444999999999993          5.9698842428564282E-026
  -89.430000000000007          8.2180903678224821E-026
  -89.415000000000006          1.0989473359214187E-025
  -89.400000000000006          1.4225060317688031E-025
  -89.385000000000005          1.7721867471569334E-025
  -89.370000000000005          2.1042943532861012E-025
  -89.355000000000004          2.3391175371716344E-025
  -89.340000000000003          2.3437079680829220E-025
  -89.325000000000003          1.9089457690978275E-025
  -89.310000000000002          7.1966461506486991E-026
  -89.295000000000002         -1.6834809407385443E-025
  -89.280000000000001         -5.9517597937804261E-025
  -89.265000000000001         -1.2987053567470384E-024
  -89.250000000000000         -2.4012716906787716E-024
  -89.234999999999999         -4.0657630730992226E-024
  -89.219999999999999         -6.5054152133997120E-024
  -89.204999999999998         -9.9950143972785907E-024
  -89.189999999999998         -1.4883468675519228E-023
  -89.174999999999997         -2.1607618057427264E-023
  -89.159999999999997         -3.0707057601670166E-023
  -89.144999999999996         -4.2839608950780871E-023
  -89.129999999999995         -5.8796946087968410E-023
  -89.114999999999995         -7.9519684668512972E-023
  -89.099999999999994         -1.0611104351292252E-022
  -89.084999999999994         -1.3984799910013262E-022
  -89.069999999999993         -1.8218847366807481E-022
  -89.055000000000007         -2.3477308332944258E-022
  -89.040000000000006         -2.9941938885341410E-022
  -89.025000000000006         -3.7810635826126301E-022
  -89.010000000000005         -4.7294657367894567E-022
  -88.995000000000005         -5.8614344352160196E-022
  -88.980000000000004         -7.1992975969536942E-022
  -88.965000000000003         -8.7648469680837955E-022
  -88.950000000000003         -1.0578255678327870E-021
  -88.935000000000002         -1.2656699438403113E-021
  -88.920000000000002         -1.5012657649176887E-021
  -88.905000000000001         -1.7651834342973791E-021
  -88.890000000000001         -2.0570705520358023E-021
  -88.875000000000000         -2.3753626239421749E-021
  -88.859999999999999         -2.7169506545257124E-021
  -88.844999999999999         -3.0768051190902151E-021
  -88.829999999999998         -3.4475567188728236E-021
  -88.814999999999998         -3.8190375542979930E-021
  -88.799999999999997         -4.1777916020759231E-021
  -88.784999999999997         -4.5065579292681051E-021
  -88.769999999999996         -4.7837454255204144E-021
  -88.754999999999995         -4.9829146034899146E-021
  -88.739999999999995         -5.0722820174915360E-021
  -88.724999999999994         -5.0142828432815740E-021
  -88.709999999999994         -4.7652146410946659E-021
  -88.694999999999993         -4.2749978448511915E-021
  -88.680000000000007         -3.4870986178716293E-021
  -88.665000000000006         -2.3386496180148153E-021
  -88.650000000000006         -7.6082117882195475E-022
  -88.635000000000005          1.3205150880681314E-021
  -88.620000000000005          3.9837793782378081E-021
  -88.605000000000004          7.3102886350005098E-021
  -88.590000000000003          1.1382435782700843E-020
  -88.575000000000003          1.6281405690404047E-020
  -88.560000000000002          2.2084408882825984E-020
  -88.545000000000002          2.8861417246529111E-020
  -88.530000000000001          3.6671420714533250E-020
  -88.515000000000001          4.5558213007276829E-020
  -88.500000000000000          5.5545772669001081E-020
  -88.484999999999999          6.6633288674964793E-020
  -88.469999999999999          7.8789987321441577E-020
  -88.454999999999998          9.1949784632306691E-020
  -88.439999999999998          1.0600601954498054E-019
  -88.424999999999997          1.2080643266561655E-019
  -88.409999999999997          1.3614848752876140E-019
  -88.394999999999996          1.5177548026353663E-019
  -88.379999999999995          1.6737336658050765E-019
  -88.364999999999995          1.8256890707765405E-019
  -88.349999999999994          1.9692904685491018E-019
  -88.334999999999994          2.0996202703811326E-019
  -88.319999999999993          2.2112026698645025E-019
  -88.305000000000007          2.2980527567734491E-019
  -88.290000000000006          2.3537476028984687E-019
  -88.275000000000006          2.3715195783591705E-019
  -88.260000000000005          2.3443720276430630E-019
  -88.245000000000005          2.2652175638642152E-019
  -88.230000000000004          2.1270365255493491E-019
  -88.215000000000003          1.9230536572468018E-019
  -88.200000000000003          1.6469304290189442E-019
  -88.185000000000002          1.2929676956922568E-019
  -88.170000000000002          8.5631443071502816E-020
  -88.155000000000001          3.3317594302717125E-020
  -88.140000000000001         -2.7898410992455462E-020
  -88.125000000000000         -9.8125566784415880E-020
  -88.109999999999999         -1.7731152805002601E-019
  -88.094999999999999         -2.6522879427143962E-019
  -88.079999999999998         -3.6146438260314254E-019
  -88.064999999999998         -4.6541384373720872E-019
  -88.049999999999997         -5.7627993065950190E-019
  -88.034999999999997         -6.9307679917622371E-019
  -88.019999999999996         -8.1463962388853465E-019
  -88.004999999999995         -9.3963974593752141E-019
  -87.989999999999995         -1.0666060763025467E-018
  -87.974999999999994         -1.1939509451953916E-018
  -87.959999999999994         -1.3200016900198973E-018
  -87.944999999999993         -1.4430352935601158E-018
  -87.930000000000007         -1.5613170546739469E-018
  -87.915000000000006         -1.6731399827698108E-018
  -87.900000000000006         -1.7768648126687805E-018
  -87.885000000000005         -1.8709588820933719E-018
  -87.870000000000005         -1.9540313902411537E-018
  -87.855000000000004         -2.0248639000698351E-018
  -87.840000000000003         -2.0824327755713819E-018
  -87.825000000000003         -2.1259255185891138E-018
  -87.810000000000002         -2.1547436639498488E-018
  -87.795000000000002         -2.1684965756093085E-018
  -87.780000000000001         -2.1669801467513457E-018
  -87.765000000000001         -2.1501439193585945E-018
  -87.750000000000000         -2.1180435213272492E-018
  -87.734999999999999         -2.0707796618968880E-018
  -87.719999999999999         -2.0084253397565688E-018
  -87.704999999999998         -1.9309422978029610E-018
  -87.689999999999998         -1.8380889992971991E-018
  -87.674999999999997         -1.7293236409380609E-018
  -87.659999999999997         -1.6037049945860376E-018
  -87.644999999999996         -1.4597969713001606E-018
  -87.629999999999995         -1.2955800096148817E-018
  -87.614999999999995         -1.1083763190922135E-018
  -87.599999999999994         -8.9479290825704019E-019
  -87.584999999999994         -6.5068922115565093E-019
  -87.569999999999993         -3.7117437147056696E-019
  -87.555000000000007         -5.0639977713450748E-020
  -87.540000000000006          3.1716764587940322E-019
  -87.525000000000006          7.3903107660054859E-019
  -87.510000000000005          1.2220989708623820E-018
  -87.495000000000005          1.7736743770461635E-018
  -87.480000000000004          2.4009560412277888E-018
  -87.465000000000003          3.1107305667429494E-018
  -87.450000000000003          3.9090243779444002E-018
  -87.435000000000002          4.8007168064704385E-018
  -87.420000000000002          5.7891227786258705E-018
  -87.405000000000001          6.8755595795361870E-018
  -87.390000000000001          8.0589014163877032E-018
  -87.375000000000000          9.3351459757865813E-018
  -87.359999999999999          1.0697000419862248E-017
  -87.344999999999999          1.2133506259859599E-017
  -87.329999999999998          1.3629724613915929E-017
  -87.314999999999998          1.5166498806225122E-017
  -87.299999999999997          1.6720312919152906E-017
  -87.284999999999997          1.8263257878831744E-017
  -87.269999999999996          1.9763133198376171E-017
  -87.254999999999995          2.1183696786427788E-017
  -87.239999999999995          2.2485063648210514E-017
  -87.224999999999994          2.3624274985792020E-017
  -87.209999999999994          2.4556029425745227E-017
  -87.194999999999993          2.5233587954738438E-017
  -87.180000000000007          2.5609834365080632E-017
  -87.165000000000006          2.5638486247138244E-017
  -87.150000000000006          2.5275430058843820E-017
  -87.135000000000005          2.4480168691767989E-017
  -87.120000000000005          2.3217335211640433E-017
  -87.105000000000004          2.1458236377372913E-017
  -87.090000000000003          1.9182404431888417E-017
  -87.075000000000003          1.6379076101056406E-017
  -87.060000000000002          1.3048581429941287E-017
  -87.045000000000002          9.2035638742059335E-018
  -87.030000000000001          4.8699952507232860E-018
  -87.015000000000001          8.7920639567349177E-020
  -87.000000000000000         -5.0881095433637185E-018
  -86.984999999999999         -1.0588968150320984E-017
  -86.969999999999999         -1.6331286568346767E-017
  -86.954999999999998         -2.2218215182600908E-017
  -86.939999999999998         -2.8140648043107049E-017
  -86.924999999999997         -3.3978908658841020E-017
  -86.909999999999997         -3.9604898185781632E-017
  -86.894999999999996         -4.4884672921699400E-017
  -86.879999999999995         -4.9681473441559707E-017
  -86.864999999999995         -5.3859073024642418E-017
  -86.849999999999994         -5.7285473497518773E-017
  -86.834999999999994         -5.9836769821873227E-017
  -86.819999999999993         -6.1401206588227418E-017
  -86.805000000000007         -6.1883247744553920E-017
  -86.790000000000006         -6.1207513975992001E-017
  -86.775000000000006         -5.9322600970555166E-017
  -86.760000000000005         -5.6204500638144675E-017
  -86.745000000000005         -5.1859592195644538E-017
  -86.730000000000004         -4.6327087312812219E-017
  -86.715000000000003         -3.9680734104340494E-017
  -86.700000000000003         -3.2029770041923117E-017
  -86.685000000000002         -2.3518960004562994E-017
  -86.670000000000002         -1.4327701269149399E-017
  -86.655000000000001         -4.6681222358200258E-018
  -86.640000000000001          5.2178383467819412E-018
  -86.625000000000000          1.5062370001994496E-017
  -86.609999999999999          2.4576703977975377E-017
  -86.594999999999999          3.3456941148707808E-017
  -86.579999999999998          4.1390698410222364E-017
  -86.564999999999998          4.8064424679524693E-017
  -86.549999999999997          5.3171259110414775E-017
  -86.534999999999997          5.6419230107718541E-017
  -86.519999999999996          5.7539589999139963E-017
  -86.504999999999995          5.6295086841386582E-017
  -86.489999999999995          5.2487945058719420E-017
  -86.474999999999994          4.5967243894016950E-017
  -86.459999999999994          3.6635610954291882E-017
  -86.444999999999993          2.4454868545552442E-017
  -86.430000000000007          9.4504971393877135E-018
  -86.415000000000006         -8.2852519463873262E-018
  -86.400000000000006         -2.8591779114303670E-017
  -86.385000000000005         -5.1240166265740329E-017
  -86.370000000000005         -7.5934889064792322E-017
  -86.355000000000004         -1.0231721913213010E-016
  -86.340000000000003         -1.2997031037858614E-016
  -86.325000000000003         -1.5842581314133293E-016
  -86.310000000000002         -1.8717190114454714E-016
  -86.295000000000002         -2.1566260871416418E-016
  -86.280000000000001         -2.4332802826046971E-016
  -86.265000000000001         -2.6958530847152418E-016
  -86.250000000000000         -2.9384999661372210E-016
  -86.234999999999999         -3.1554748671146985E-016
  -86.219999999999999         -3.3412405744527953E-016
  -86.204999999999998         -3.4905740712405046E-016
  -86.189999999999998         -3.5986610339638697E-016
  -86.174999999999997         -3.6611786829161374E-016
  -86.159999999999997         -3.6743611625533745E-016
  -86.144999999999996         -3.6350482458889343E-016
  -86.129999999999995         -3.5407147159488149E-016
  -86.114999999999995         -3.3894783067055397E-016
  -86.099999999999994         -3.1800893798641125E-016
  -86.084999999999994         -2.9118994258242918E-016
  -86.069999999999993         -2.5848118298905313E-016
  -86.055000000000007         -2.1992187418476303E-016
  -86.040000000000006         -1.7559255047399703E-016
  -86.025000000000006         -1.2560671427168721E-016
  -86.010000000000005         -7.0102332686562517E-017
  -85.995000000000005         -9.2335706781069071E-018
  -85.980000000000004          5.6836651914592400E-017
  -85.965000000000003          1.2794264585175736E-016
  -85.950000000000003          2.0391988656391240E-016
  -85.935000000000002          2.8460653781857274E-016
  -85.920000000000002          3.6984187511399688E-016
  -85.905000000000001          4.5946121671639286E-016
  -85.890000000000001          5.5328758567934374E-016
  -85.875000000000000          6.5111914993338659E-016
  -85.859999999999999          7.5271323453913303E-016
  -85.844999999999999          8.5776670758058444E-016
  -85.829999999999998          9.6589316321511525E-016
  -85.814999999999998          1.0765977224432921E-015
  -85.799999999999997          1.1892500339336803E-015
  -85.784999999999997          1.3030564278147024E-015
  -85.769999999999996          1.4170324400434122E-015
  -85.754999999999995          1.5299767661423663E-015
  -85.739999999999995          1.6404486030682851E-015
  -85.724999999999994          1.7467495438828052E-015
  -85.709999999999994          1.8469106605000342E-015
  -85.694999999999993          1.9386879508844585E-015
  -85.680000000000007          2.0195664683365618E-015
  -85.665000000000006          2.0867745092946911E-015
  -85.650000000000006          2.1373087066861194E-015
  -85.635000000000005          2.1679721464096724E-015
  -85.620000000000005          2.1754243422796157E-015
  -85.605000000000004          2.1562445517384629E-015
  -85.590000000000003          2.1070071617892809E-015
  -85.575000000000003          2.0243697804222041E-015
  -85.560000000000002          1.9051719159527900E-015
  -85.545000000000002          1.7465424443272016E-015
  -85.530000000000001          1.5460151232403897E-015
  -85.515000000000001          1.3016481296607737E-015
  -85.500000000000000          1.0121455031790547E-015
  -85.484999999999999          6.7697747762628427E-016
  -85.469999999999999          2.9649451288438883E-016
  -85.454999999999998         -1.2796675982097450E-016
  -85.439999999999998         -5.9399138338273472E-016
  -85.424999999999997         -1.0980109271081177E-015
  -85.409999999999997         -1.6352490913215645E-015
  -85.394999999999996         -2.1996933185261091E-015
  -85.379999999999995         -2.7840935360888466E-015
  -85.364999999999995         -3.3799930729435084E-015
  -85.349999999999994         -3.9777925046988617E-015
  -85.334999999999994         -4.5668492858891296E-015
  -85.319999999999993         -5.1356136987620263E-015
  -85.305000000000007         -5.6717995304176282E-015
  -85.290000000000006         -6.1625920193969248E-015
  -85.275000000000006         -6.5948858719399976E-015
  -85.260000000000005         -6.9555537714302996E-015
  -85.245000000000005         -7.2317419928932467E-015
  -85.230000000000004         -7.4111825346372812E-015
  -85.215000000000003         -7.4825230375868274E-015
  -85.200000000000003         -7.4356592457140887E-015
  -85.185000000000002         -7.2620691605367396E-015
  -85.170000000000002         -6.9551387252861450E-015
  -85.155000000000001         -6.5104646391860033E-015
  -85.140000000000001         -5.9261330312919934E-015
  -85.125000000000000         -5.2029625589476367E-015
  -85.109999999999999         -4.3447000723951124E-015
  -85.094999999999999         -3.3581656691674755E-015
  -85.079999999999998         -2.2533371856251448E-015
  -85.064999999999998         -1.0433669258566114E-015
  -85.049999999999997          2.5547117200164617E-016
  -85.034999999999997          1.6239101788940264E-015
  -85.019999999999996          3.0398951568190403E-015
  -85.004999999999995          4.4788645855260364E-015
  -84.989999999999995          5.9141060104739296E-015
  -84.974999999999994          7.3171839003486824E-015
  -84.959999999999994          8.6584317732056604E-015
  -84.944999999999993          9.9075012855776891E-015
  -84.930000000000007          1.1033958543669922E-014
  -84.915000000000006          1.2007919378070279E-014
  -84.900000000000006          1.2800702406151783E-014
  -84.885000000000005          1.3385503270298572E-014
  -84.870000000000005          1.3738051088440020E-014
  -84.855000000000004          1.3837251352057708E-014
  -84.840000000000003          1.3665793248808598E-014
  -84.825000000000003          1.3210704469105491E-014
  -84.810000000000002          1.2463838250061695E-014
  -84.795000000000002          1.1422286727569286E-014
  -84.780000000000001          1.0088693491456645E-014
  -84.765000000000001          8.4714729670217967E-015
  -84.750000000000000          6.5849112119531310E-015
  -84.734999999999999          4.4491540578681446E-015
  -84.719999999999999          2.0900717968001152E-015
  -84.704999999999998         -4.6099392283444952E-016
  -84.689999999999998         -3.1676065494413074E-015
  -84.674999999999997         -5.9887236838964027E-015
  -84.659999999999997         -8.8792913790374829E-015
  -84.644999999999996         -1.1790937489070986E-014
  -84.629999999999995         -1.4672743475405668E-014
  -84.614999999999995         -1.7472094192456933E-014
  -84.599999999999994         -2.0135562190043768E-014
  -84.584999999999994         -2.2609843684795461E-014
  -84.569999999999993         -2.4842693684525366E-014
  -84.555000000000007         -2.6783867888868253E-014
  -84.540000000000006         -2.8386030708599762E-014
  -84.525000000000006         -2.9605617545176710E-014
  -84.510000000000005         -3.0403644554234666E-014
  -84.495000000000005         -3.0746442176120270E-014
  -84.480000000000004         -3.0606278552140417E-014
  -84.465000000000003         -2.9961906707846181E-014
  -84.450000000000003         -2.8798981293242862E-014
  -84.435000000000002         -2.7110365208716895E-014
  -84.420000000000002         -2.4896314258218352E-014
  -84.405000000000001         -2.2164546605962614E-014
  -84.390000000000001         -1.8930190260387642E-014
  -84.375000000000000         -1.5215623831959894E-014
  -84.359999999999999         -1.1050219035158362E-014
  -84.344999999999999         -6.4699891698014565E-015
  -84.329999999999998         -1.5171668751228027E-015
  -84.314999999999998          3.7602867258216925E-015
  -84.299999999999997          9.3092165039435591E-015
  -84.284999999999997          1.5071841683229371E-014
  -84.269999999999996          2.0986344105122616E-014
  -84.254999999999995          2.6987460728070296E-014
  -84.239999999999995          3.3007071468388327E-014
  -84.224999999999994          3.8974777723764509E-014
  -84.209999999999994          4.4818437698081193E-014
  -84.194999999999993          5.0464718666896891E-014
  -84.180000000000007          5.5839573009962631E-014
  -84.165000000000006          6.0868749819122103E-014
  -84.150000000000006          6.5478235355444225E-014
  -84.135000000000005          6.9594727387673611E-014
  -84.120000000000005          7.3146092590022083E-014
  -84.105000000000004          7.6061844268750928E-014
  -84.090000000000003          7.8273664134466403E-014
  -84.075000000000003          7.9715985060787448E-014
  -84.060000000000002          8.0326580619276972E-014
  -84.045000000000002          8.0047303692171862E-014
  -84.030000000000001          7.8824879295221612E-014
  -84.015000000000001          7.6611778715689888E-014
  -84.000000000000000          7.3367249504418391E-014
  -83.984999999999999          6.9058386125472188E-014
  -83.969999999999999          6.3661349683583751E-014
  -83.954999999999998          5.7162648637969216E-014
  -83.939999999999998          4.9560480502516824E-014
  -83.924999999999997          4.0866114203556847E-014
  -83.909999999999997          3.1105292766422238E-014
  -83.894999999999996          2.0319600426625499E-014
  -83.879999999999995          8.5677382614772479E-015
  -83.864999999999995         -4.0733107160948346E-015
  -83.849999999999994         -1.7507312128337872E-014
  -83.834999999999994         -3.1618039078844945E-014
  -83.819999999999993         -4.6268839318719043E-014
  -83.805000000000007         -6.1302552660860710E-014
  -83.790000000000006         -7.6541813794246683E-014
  -83.775000000000006         -9.1789884070284100E-014
  -83.760000000000005         -1.0683190849970423E-013
  -83.745000000000005         -1.2143675550812388E-013
  -83.730000000000004         -1.3535938862829777E-013
  -83.715000000000003         -1.4834382095103849E-013
  -83.700000000000003         -1.6012669976864929E-013
  -83.685000000000002         -1.7044129779417161E-013
  -83.670000000000002         -1.7902218878325382E-013
  -83.655000000000001         -1.8561020775909043E-013
  -83.640000000000001         -1.8995793978592024E-013
  -83.625000000000000         -1.9183541203043192E-013
  -83.609999999999999         -1.9103608397876698E-013
  -83.594999999999999         -1.8738278344341414E-013
  -83.579999999999998         -1.8073369678021228E-013
  -83.564999999999998         -1.7098808805481036E-013
  -83.549999999999997         -1.5809172005352978E-013
  -83.534999999999997         -1.4204174674566777E-013
  -83.519999999999996         -1.2289095522449722E-013
  -83.504999999999995         -1.0075118772037359E-013
  -83.489999999999995         -7.5795835265731609E-014
  -83.474999999999994         -4.8261233605382398E-014
  -83.459999999999994         -1.8446854625959498E-014
  -83.444999999999993          1.3285772764055903E-014
  -83.430000000000007          4.6515532582409175E-014
  -83.415000000000006          8.0765580855179930E-014
  -83.400000000000006          1.1550863618457058E-013
  -83.385000000000005          1.5017368316765090E-013
  -83.370000000000005          1.8415402937375230E-013
  -83.355000000000004          2.1681658204930621E-013
  -83.340000000000003          2.4751232422133562E-013
  -83.325000000000003          2.7558776658290207E-013
  -83.310000000000002          3.0039721253018181E-013
  -83.295000000000002          3.2131551109051970E-013
  -83.280000000000001          3.3775136550409646E-013
  -83.265000000000001          3.4916047917527004E-013
  -83.250000000000000          3.5505862030875412E-013
  -83.234999999999999          3.5503430707503614E-013
  -83.219999999999999          3.4876054409889445E-013
  -83.204999999999998          3.3600552895585167E-013
  -83.189999999999998          3.1664219315129249E-013
  -83.174999999999997          2.9065584574577974E-013
  -83.159999999999997          2.5815027199227458E-013
  -83.144999999999996          2.1935160935890319E-013
  -83.129999999999995          1.7461008225243269E-013
  -83.114999999999995          1.2439935149696768E-013
  -83.099999999999994          6.9313519225448761E-014
  -83.084999999999994          1.0061552014727776E-014
  -83.069999999999993         -5.2540586356446262E-014
  -83.055000000000007         -1.1758027548564726E-013
  -83.040000000000006         -1.8406078798691855E-013
  -83.025000000000006         -2.5091582457614781E-013
  -83.010000000000005         -3.1702608203551530E-013
  -82.995000000000005         -3.8123714254933994E-013
  -82.980000000000004         -4.4237871829264086E-013
  -82.965000000000003         -4.9928496666934441E-013
  -82.950000000000003         -5.5081492752323546E-013
  -82.935000000000002         -5.9587361087021229E-013
  -82.920000000000002         -6.3343243410923789E-013
  -82.905000000000001         -6.6254927976253097E-013
  -82.890000000000001         -6.8238719796304137E-013
  -82.875000000000000         -6.9223180789931837E-013
  -82.859999999999999         -6.9150718137733769E-013
  -82.844999999999999         -6.7978901587689711E-013
  -82.829999999999998         -6.5681596446431900E-013
  -82.814999999999998         -6.2249820098961295E-013
  -82.799999999999997         -5.7692284109733816E-013
  -82.784999999999997         -5.2035676115225193E-013
  -82.769999999999996         -4.5324640850392950E-013
  -82.754999999999995         -3.7621446756508359E-013
  -82.739999999999995         -2.9005349012380111E-013
  -82.724999999999994         -1.9571691001803865E-013
  -82.709999999999994         -9.4307103359198008E-014
  -82.694999999999993          1.2938831456992331E-014
  -82.680000000000007          1.2466564510305728E-013
  -82.665000000000006          2.3941832132286234E-013
  -82.650000000000006          3.5566214144806818E-013
  -82.635000000000005          4.7180407367411470E-013
  -82.620000000000005          5.8621483318629930E-013
  -82.605000000000004          6.9725155553770901E-013
  -82.590000000000003          8.0328078173527717E-013
  -82.575000000000003          9.0270092832980819E-013
  -82.560000000000002          9.9396467619083939E-013
  -82.545000000000002          1.0756000040287872E-012
  -82.530000000000001          1.1462303545553554E-012
  -82.515000000000001          1.2045938248619881E-012
  -82.500000000000000          1.2495600257636519E-012
  -82.484999999999999          1.2801455858899025E-012
  -82.469999999999999          1.2955282463131268E-012
  -82.454999999999998          1.2950581362511371E-012
  -82.439999999999998          1.2782679645675921E-012
  -82.424999999999997          1.2448806091872044E-012
  -82.409999999999997          1.1948147549470378E-012
  -82.394999999999996          1.1281892304051966E-012
  -82.379999999999995          1.0453243088834330E-012
  -82.364999999999995          9.4674246740866774E-013
  -82.349999999999994          8.3316643514907973E-013
  -82.334999999999994          7.0551572396715390E-013
  -82.319999999999993          5.6490180372001375E-013
  -82.305000000000007          4.1262154283627783E-013
  -82.290000000000006          2.5014894127449450E-013
  -82.275000000000006          7.9125440466225327E-014
  -82.260000000000005         -9.8651501464347424E-014
  -82.245000000000005         -2.8124125749616480E-013
  -82.230000000000004         -4.6657480396589124E-013
  -82.215000000000003         -6.5247080741764885E-013
  -82.200000000000003         -8.3665393406720523E-013
  -82.185000000000002         -1.0167747720168929E-012
  -82.170000000000002         -1.1904314339838962E-012
  -82.155000000000001         -1.3551937350086973E-012
  -82.140000000000001         -1.5086287254162389E-012
  -82.125000000000000         -1.6483286090218652E-012
  -82.109999999999999         -1.7719397997495445E-012
  -82.094999999999999         -1.8771945803353063E-012
  -82.079999999999998         -1.9619442789137187E-012
  -82.064999999999998         -2.0241926624448014E-012
  -82.049999999999997         -2.0621312817048487E-012
  -82.034999999999997         -2.0741752499581212E-012
  -82.019999999999996         -2.0589983711072346E-012
  -82.004999999999995         -2.0155691352052862E-012
  -81.989999999999995         -1.9431834613614640E-012
  -81.974999999999994         -1.8414972238062211E-012
  -81.960000000000008         -1.7105554169297155E-012
  -81.944999999999993         -1.5508180677137329E-012
  -81.930000000000007         -1.3631815945144843E-012
  -81.915000000000006         -1.1489948532547589E-012
  -81.900000000000006         -9.1006997944564905E-013
  -81.885000000000005         -6.4868569500317608E-013
  -81.870000000000005         -3.6758356775079548E-013
  -81.855000000000004         -6.9956166510662388E-014
  -81.840000000000003          2.4057324058204821E-013