  -90.000000000000000          0.0000000000000000     
  -89.984999999999999          0.0000000000000000     
  -89.969999999999999          0.0000000000000000     
  -89.954999999999998          0.0000000000000000     
  -89.939999999999998          0.0000000000000000     
  -89.924999999999997          0.0000000000000000     
  -89.909999999999997          0.0000000000000000     
  -89.894999999999996          0.0000000000000000     
  -89.879999999999995          0.0000000000000000     
  -89.864999999999995          0.0000000000000000     
  -89.849999999999994          0.0000000000000000     
  -89.834999999999994          0.0000000000000000     
  -89.819999999999993          0.0000000000000000     
  -89.805000000000007          0.0000000000000000     
  -89.790000000000006         -1.9144109140717410E-037
  -89.775000000000006         -1.3605606328347797E-036
  -89.760000000000005         -6.3025947675174947E-036
  -89.745000000000005         -2.4055530486727710E-035
  -89.730000000000004         -8.1643030301963379E-035
  -89.715000000000003         -2.5301799584579706E-034
  -89.700000000000003         -7.2729782397893478E-034
  -89.685000000000002         -1.9582343658577555E-033
  -89.670000000000002         -4.9751002096248468E-033
  -89.655000000000001         -1.1997335586150216E-032
  -89.640000000000001         -2.7595047269027921E-032
  -89.625000000000000         -6.0788045490485248E-032
  -89.609999999999999         -1.2869121722717570E-031
  -89.594999999999999         -2.6260355718273771E-031
  -89.579999999999998         -5.1779881982817514E-031
  -89.564999999999998         -9.8868036873085049E-031
  -89.549999999999997         -1.8313385722534028E-030
  -89.534999999999997         -3.2957555166546949E-030
  -89.519999999999996         -5.7696813671692835E-030
  -89.504999999999995         -9.8351750350249093E-030
  -89.489999999999995         -1.6336283969987701E-029
  -89.474999999999994         -2.6451516302316357E-029
  -89.459999999999994         -4.1756261661660871E-029
  -89.444999999999993         -6.4246507198768332E-029
  -89.430000000000007         -9.6273741153362642E-029
  -89.415000000000006         -1.4030914831121137E-028
  -89.400000000000006         -1.9840930287077304E-028
  -89.385000000000005         -2.7119159176837636E-028
  -89.370000000000005         -3.5604110769615387E-028
  -89.355000000000004         -4.4415579710339690E-028
  -89.340000000000003         -5.1588850232955779E-028
  -89.325000000000003         -5.3365780607195496E-028
  -89.310000000000002         -4.3147032248695010E-028
  -89.295000000000002         -9.9820973091714739E-029
  -89.280000000000001          6.3558413355650091E-028
  -89.265000000000001          2.0431990483289969E-027
  -89.250000000000000          4.5254257682467194E-027
  -89.234999999999999          8.6715542710139500E-027
  -89.219999999999999          1.5327006557644454E-026
  -89.204999999999998          2.5682428342055386E-026
  -89.189999999999998          4.1386450323381218E-026
  -89.174999999999997          6.4686107353033027E-026
  -89.159999999999997          9.8598880215886646E-026
  -89.144999999999996          1.4711993339601851E-025
  -89.129999999999995          2.1546742154409425E-025
  -89.114999999999995          3.1036741309408526E-025
  -89.099999999999994          4.4037819837697607E-025
  -89.084999999999994          6.1625089149908770E-025
  -89.069999999999993          8.5131995346801694E-025
  -89.055000000000007          1.1619124384391231E-024
  -89.040000000000006          1.5677588916395348E-024
  -89.025000000000006          2.0923825536172639E-024
  -89.010000000000005          2.7634339851764383E-024
  -88.995000000000005          3.6129312755229421E-024
  -88.980000000000004          4.6773531278512316E-024
  -88.965000000000003          5.9975197413476471E-024
  -88.950000000000003          7.6181906893439761E-024
  -88.935000000000002          9.5872869052496794E-024
  -88.920000000000002          1.1954641126878021E-023
  -88.905000000000001          1.4770167739145955E-023
  -88.890000000000001          1.8081329347277009E-023
  -88.875000000000000          2.1929785695675905E-023
  -88.859999999999999          2.6347084909664241E-023
  -88.844999999999999          3.1349294508159559E-023
  -88.829999999999998          3.6930463324492871E-023
  -88.814999999999998          4.3054803894837921E-023
  -88.799999999999997          4.9647585847921313E-023
  -88.784999999999997          5.6584677187141088E-023
  -88.769999999999996          6.3680790263078936E-023
  -88.754999999999995          7.0676598097196122E-023
  -88.739999999999995          7.7224799942803664E-023
  -88.724999999999994          8.2875555757308332E-023
  -88.709999999999994          8.7061579886547593E-023
  -88.694999999999993          8.9083493495501464E-023
  -88.680000000000007          8.8096035279669252E-023
  -88.665000000000006          8.3095963494227083E-023
  -88.650000000000006          7.2912558068729041E-023
  -88.635000000000005          5.6201783036408535E-023
  -88.620000000000005          3.1445295724881335E-023
  -88.605000000000004         -3.0443680611244027E-024
  -88.590000000000003         -4.9111109945273091E-023
  -88.575000000000003         -1.0873364630220960E-022
  -88.560000000000002         -1.8399350101519084E-022
  -88.545000000000002         -2.7703136490194798E-022
  -88.530000000000001         -3.8999044051333444E-022
  -88.515000000000001         -5.2494596214460980E-022
  -88.500000000000000         -6.8381982215283313E-022
  -88.484999999999999         -8.6828054339408103E-022
  -88.469999999999999         -1.0796275123078846E-021
  -88.454999999999998         -1.3186620096255566E-021
  -88.439999999999998         -1.5855443823701359E-021
  -88.424999999999997         -1.8796401086947861E-021
  -88.409999999999997         -2.1993587440403859E-021
  -88.394999999999996         -2.5419868088413668E-021
  -88.379999999999995         -2.9035222918186848E-021
  -88.364999999999995         -3.2785121824986689E-021
  -88.349999999999994         -3.6599046449902695E-021
  -88.334999999999994         -4.0389161359432959E-021
  -88.319999999999993         -4.4049269972298882E-021
  -88.305000000000007         -4.7454111779041935E-021
  -88.290000000000006         -5.0459055380468214E-021
  -88.275000000000006         -5.2900340825718528E-021
  -88.260000000000005         -5.4595863172028332E-021
  -88.245000000000005         -5.5346642669019578E-021
  -88.230000000000004         -5.4939038113074136E-021
  -88.215000000000003         -5.3147695293853159E-021
  -88.200000000000003         -4.9739339585093890E-021
  -88.185000000000002         -4.4477380367941256E-021
  -88.170000000000002         -3.7127323247846412E-021
  -88.155000000000001         -2.7462963811741299E-021
  -88.140000000000001         -1.5273275077938818E-021
  -88.125000000000000         -3.6989069378863550E-023
  -88.109999999999999          1.7404952434075824E-021
  -88.094999999999999          3.8170184742774106E-021
  -88.079999999999998          6.1997594846600732E-021
  -88.064999999999998          8.8903667792773158E-021
  -88.049999999999997          1.1884181408731775E-020
  -88.034999999999997          1.5169531159877861E-020
  -88.019999999999996          1.8727117036607659E-020
  -88.004999999999995          2.2529533834368948E-020
  -87.989999999999995          2.6540934905834919E-020
  -87.974999999999994          3.0716880295713586E-020
  -87.959999999999994          3.5004393286297477E-020
  -87.944999999999993          3.9342235047276391E-020
  -87.930000000000007          4.3661403852161774E-020
  -87.915000000000006          4.7885899251001049E-020
  -87.900000000000006          5.1933704347355022E-020
  -87.885000000000005          5.5718007182171107E-020
  -87.870000000000005          5.9148628912809684E-020
  -87.855000000000004          6.2133626475480925E-020
  -87.840000000000003          6.4581060037569267E-020
  -87.825000000000003          6.6400799224049107E-020
  -87.810000000000002          6.7506448897348405E-020
  -87.795000000000002          6.7817152152590100E-020
  -87.780000000000001          6.7259373925787937E-020
  -87.765000000000001          6.5768464882192067E-020
  -87.750000000000000          6.3289992660087380E-020
  -87.734999999999999          5.9780775846559193E-020
  -87.719999999999999          5.5209517287649740E-020
  -87.704999999999998          4.9557014114685571E-020
  -87.689999999999998          4.2815889556813333E-020
  -87.674999999999997          3.4989820690349765E-020
  -87.659999999999997          2.6092266971707328E-020
  -87.644999999999996          1.6144693091546919E-020
  -87.629999999999995          5.1743584476819238E-021
  -87.614999999999995         -6.7882714294070597E-021
  -87.599999999999994         -1.9712392543734884E-020
  -87.584999999999994         -3.3569881158371531E-020
  -87.569999999999993         -4.8338308884930735E-020
  -87.555000000000007         -6.4003791367583822E-020
  -87.540000000000006         -8.0563456092406733E-020
  -87.525000000000006         -9.8027332624326672E-020
  -87.510000000000005         -1.1641945443754743E-019
  -87.495000000000005         -1.3577794938842886E-019
  -87.480000000000004         -1.5615391526684173E-019
  -87.465000000000003         -1.7760896410372417E-019
  -87.450000000000003         -2.0021114442915574E-019
  -87.435000000000002         -2.2402928025504025E-019
  -87.420000000000002         -2.4912568154595769E-019
  -87.405000000000001         -2.7554704523242608E-019
  -87.390000000000001         -3.0331392158278854E-019
  -87.375000000000000         -3.3240881055721075E-019
  -87.359999999999999         -3.6276292691788008E-019
  -87.344999999999999         -3.9424247420071609E-019
  -87.329999999999998         -4.2663435000040981E-019
  -87.314999999999998         -4.5963221314698105E-019
  -87.299999999999997         -4.9282330051476585E-019
  -87.284999999999997         -5.2567674309626415E-019
  -87.269999999999996         -5.5753426022024862E-019
  -87.254999999999995         -5.8760361965504657E-019
  -87.239999999999995         -6.1495615606670239E-019
  -87.224999999999994         -6.3852827028383773E-019
  -87.209999999999994         -6.5712887392316453E-019
  -87.194999999999993         -6.6945200389382640E-019
  -87.180000000000007         -6.7409600264785223E-019
  -87.165000000000006         -6.6958916077914535E-019
  -87.150000000000006         -6.5442233895889102E-019
  -87.135000000000005         -6.2708810391828794E-019
  -87.120000000000005         -5.8612586149072059E-019
  -87.105000000000004         -5.3017334860489070E-019
  -87.090000000000003         -4.5802215778343487E-019
  -87.075000000000003         -3.6867757849036394E-019
  -87.060000000000002         -2.6141998944215091E-019
  -87.045000000000002         -1.3586701347594609E-019
  -87.030000000000001          7.9662582088328327E-021
  -87.015000000000001          1.6961068334231046E-019
  -87.000000000000000          3.4809282705546385E-019
  -86.984999999999999          5.4189356730657798E-019
  -86.969999999999999          7.4891748758299409E-019
  -86.954999999999998          9.6647679373119184E-019
  -86.939999999999998          1.1912901119599617E-018
  -86.924999999999997          1.4195004541693336E-018
  -86.909999999999997          1.6467121825842009E-018
  -86.894999999999996          1.8680496878790229E-018
  -86.879999999999995          2.0782371087093598E-018
  -86.864999999999995          2.2717005919150996E-018
  -86.849999999999994          2.4426914390341518E-018
  -86.834999999999994          2.5854305527169148E-018
  -86.819999999999993          2.6942689097651108E-018
  -86.805000000000007          2.7638635438071067E-018
  -86.790000000000006          2.7893657288872697E-018
  -86.775000000000006          2.7666141261389986E-018
  -86.760000000000005          2.6923302052044397E-018
  -86.745000000000005          2.5643084957753733E-018
  -86.730000000000004          2.3815956721958321E-018
  -86.715000000000003          2.1446518536815487E-018
  -86.700000000000003          1.8554872959161801E-018
  -86.685000000000002          1.5177676497842551E-018
  -86.670000000000002          1.1368798256274486E-018
  -86.655000000000001          7.1995489580779209E-019
  -86.640000000000001          2.7584100454261211E-019
  -86.625000000000000         -1.8497751484974069E-019
  -86.609999999999999         -6.5051778797369931E-019
  -86.594999999999999         -1.1074940275713492E-018
  -86.579999999999998         -1.5415714262716935E-018
  -86.564999999999998         -1.9376759615794489E-018
  -86.549999999999997         -2.2803566234351607E-018
  -86.534999999999997         -2.5541924904741560E-018
  -86.519999999999996         -2.7442403381355112E-018
  -86.504999999999995         -2.8365079927675855E-018
  -86.489999999999995         -2.8184469176827965E-018
  -86.474999999999994         -2.6794462467784669E-018
  -86.459999999999994         -2.4113179259660875E-018
  -86.444999999999993         -2.0087545576403649E-018
  -86.430000000000007         -1.4697460929127953E-018
  -86.415000000000006         -7.9593908649145380E-019
  -86.400000000000006          7.0779518570689773E-021
  -86.385000000000005          9.2957543942458873E-019
  -86.370000000000005          1.9575837173817626E-018
  -86.355000000000004          3.0729054584872777E-018
  -86.340000000000003          4.2532464908716046E-018
  -86.325000000000003          5.4724681139732209E-018
  -86.310000000000002          6.7009686355961508E-018
  -86.295000000000002          7.9061831957951004E-018
  -86.280000000000001          9.0532022911784943E-018
  -86.265000000000001          1.0105496798715378E-017
  -86.250000000000000          1.1025731921458171E-017
  -86.234999999999999          1.1776657234881773E-017
  -86.219999999999999          1.2322044709698198E-017
  -86.204999999999998          1.2627654858812040E-017
  -86.189999999999998          1.2662204538637155E-017
  -86.174999999999997          1.2398299181647012E-017
  -86.159999999999997          1.1813307953462773E-017
  -86.144999999999996          1.0890151228796442E-017
  -86.129999999999995          9.6179681262051995E-018
  -86.114999999999995          7.9926417677803680E-018
  -86.099999999999994          6.0171566211720390E-018
  -86.084999999999994          3.7017730346983203E-018
  -86.069999999999993          1.0640022151318064E-018
  -86.055000000000007         -1.8716214537640269E-018
  -86.040000000000006         -5.0739721995145747E-018
  -86.025000000000006         -8.5059627589705627E-018
  -86.010000000000005         -1.2125352740561664E-017
  -85.995000000000005         -1.5885720768311403E-017
  -85.980000000000004         -1.9737561736919707E-017
  -85.965000000000003         -2.3629477951844979E-017
  -85.950000000000003         -2.7509416591500483E-017
  -85.935000000000002         -3.1325922058701746E-017
  -85.920000000000002         -3.5029328775109859E-017
  -85.905000000000001         -3.8572874566335973E-017
  -85.890000000000001         -4.1913635376033488E-017
  -85.875000000000000         -4.5013309433118747E-017
  -85.859999999999999         -4.7838723486305924E-017
  -85.844999999999999         -5.0362080958290788E-017
  -85.829999999999998         -5.2560915623636398E-017
  -85.814999999999998         -5.4417717723136231E-017
  -85.799999999999997         -5.5919242440822088E-017
  -85.784999999999997         -5.7055530522118832E-017
  -85.769999999999996         -5.7818594711031649E-017
  -85.754999999999995         -5.8200904355263858E-017
  -85.739999999999995         -5.8193678105432594E-017
  -85.724999999999994         -5.7785057500276299E-017
  -85.709999999999994         -5.6958240847192795E-017
  -85.694999999999993         -5.5689683277226372E-017
  -85.680000000000007         -5.3947485397234536E-017
  -85.665000000000006         -5.1690013552626267E-017
  -85.650000000000006         -4.8864960150186163E-017
  -85.635000000000005         -4.5408863893319154E-017
  -85.620000000000005         -4.1247235513503617E-017
  -85.605000000000004         -3.6295384950903921E-017
  -85.590000000000003         -3.0459989688811834E-017
  -85.575000000000003         -2.3641491923061699E-017
  -85.560000000000002         -1.5737319603335715E-017
  -85.545000000000002         -6.6459507851037176E-018
  -85.530000000000001          3.7282357832648105E-018
  -85.515000000000001          1.5469380913678763E-017
  -85.500000000000000          2.8643951049898614E-017
  -85.484999999999999          4.3294077395653833E-017
  -85.469999999999999          5.9430630758554591E-017
  -85.454999999999998          7.7026178520766181E-017
  -85.439999999999998          9.6008213338514653E-017
  -85.424999999999997          1.1625274414670076E-016
  -85.409999999999997          1.3757867794817949E-016
  -85.394999999999996          1.5974325377677878E-016
  -85.379999999999995          1.8243878691440852E-016
  -85.364999999999995          2.0529110055661910E-016
  -85.349999999999994          2.2785980374528730E-016
  -85.334999999999994          2.4964077952789880E-016
  -85.319999999999993          2.7007094951787651E-016
  -85.305000000000007          2.8853568543286902E-016
  -85.290000000000006          3.0437853673875425E-016
  -85.275000000000006          3.1691377732517064E-016
  -85.260000000000005          3.2544136093099211E-016
  -85.245000000000005          3.2926417944062838E-016
  -85.230000000000004          3.2770743876269339E-016
  -85.215000000000003          3.2013986112346625E-016
  -85.200000000000003          3.0599602556087514E-016
  -85.185000000000002          2.8479963486076711E-016
  -85.170000000000002          2.5618699425141486E-016
  -85.155000000000001          2.1992980188375374E-016
  -85.140000000000001          1.7595706580889200E-016
  -85.125000000000000          1.2437477102435483E-016
  -85.109999999999999          6.5483031891266290E-017
  -85.094999999999999         -2.1030818919976963E-019
  -85.079999999999998         -7.1980264287629405E-017
  -85.064999999999998         -1.4888020181203019E-016
  -85.049999999999997         -2.2974283739637242E-016
  -85.034999999999997         -3.1318709705504774E-016
  -85.019999999999996         -3.9763149086619357E-016
  -85.004999999999995         -4.8131397854128417E-016
  -84.989999999999995         -5.6231843920473228E-016
  -84.974999999999994         -6.3860767920905252E-016
  -84.959999999999994         -7.0806236918065542E-016
  -84.944999999999993         -7.6852617499406834E-016
  -84.930000000000007         -8.1785499156199464E-016
  -84.915000000000006         -8.5397094118570111E-016
  -84.900000000000006         -8.7491870124601040E-016
  -84.885000000000005         -8.7892357889974714E-016
  -84.870000000000005         -8.6445006223221689E-016
  -84.855000000000004         -8.3025846558555379E-016
  -84.840000000000003         -7.7545913966734479E-016
  -84.825000000000003         -6.9956186415936648E-016
  -84.810000000000002         -6.0251909933745421E-016
  -84.795000000000002         -4.8476140263660917E-016
  -84.780000000000001         -3.4722368667236330E-016
  -84.765000000000001         -1.9136087611541368E-016
  -84.750000000000000         -1.9151802057946405E-017
  -84.734999999999999          1.6690939073856658E-016
  -84.719999999999999          3.6383492921030619E-016
  -84.704999999999998          5.6817863665031116E-016
  -84.689999999999998          7.7608440880109607E-016
  -84.674999999999997          9.8334775940094781E-016
  -84.659999999999997          1.1854895252852264E-015
  -84.644999999999996          1.3778400138157189E-015
  -84.629999999999995          1.5556333941146991E-015
  -84.614999999999995          1.7141089175021240E-015
  -84.599999999999994          1.8486180671634621E-015
  -84.584999999999994          1.9547345665537176E-015
  -84.569999999999993          2.0283643878014554E-015
  -84.555000000000007          2.0658538542886939E-015
  -84.540000000000006          2.0640926610331154E-015
  -84.525000000000006          2.0206087423781582E-015
  -84.510000000000005          1.9336521282547949E-015
  -84.495000000000005          1.8022656714326282E-015
  -84.480000000000004          1.6263415869691199E-015
  -84.465000000000003          1.4066590392966256E-015
  -84.450000000000003          1.1449030945845894E-015
  -84.435000000000002          8.4366445604174760E-016
  -84.420000000000002          5.0641765281773748E-016
  -84.405000000000001          1.3747917804665671E-016
  -84.390000000000001         -2.5805472836989019E-016
  -84.375000000000000         -6.7438936845594876E-016
  -84.359999999999999         -1.1051299213924348E-015
  -84.344999999999999         -1.5433955679718873E-015
  -84.329999999999998         -1.9819459235007357E-015
  -84.314999999999998         -2.4133165101313013E-015
  -84.299999999999997         -2.8299614289738510E-015
  -84.284999999999997         -3.2243975674558665E-015
  -84.269999999999996         -3.5893487008021967E-015
  -84.254999999999995         -3.9178839819219331E-015
  -84.239999999999995         -4.2035475374493404E-015
  -84.224999999999994         -4.4404783229058924E-015
  -84.209999999999994         -4.6235115548957061E-015
  -84.194999999999993         -4.7482668025320557E-015
  -84.180000000000007         -4.8112123619413645E-015
  -84.165000000000006         -4.8097118430753035E-015
  -84.150000000000006         -4.7420461925674201E-015
  -84.135000000000005         -4.6074175053814007E-015
  -84.120000000000005         -4.4059282725038632E-015
  -84.105000000000004         -4.1385441114946773E-015
  -84.090000000000003         -3.8070365917630255E-015
  -84.075000000000003         -3.4139150484151486E-015
  -84.060000000000002         -2.9623446318166992E-015
  -84.045000000000002         -2.4560577926497533E-015
  -84.030000000000001         -1.8992644964204016E-015
  -84.015000000000001         -1.2965623320872221E-015
  -84.000000000000000         -6.5285323813465295E-016
  -83.984999999999999          2.6730334877206189E-017
  -83.969999999999999          7.3688552394717997E-016
  -83.954999999999998          1.4721823317226661E-015
  -83.939999999999998          2.2270880581062077E-015
  -83.924999999999997          2.9959697222403268E-015
  -83.909999999999997          3.7730777703581797E-015
  -83.894999999999996          4.5525052064438517E-015
  -83.879999999999995          5.3281315821787200E-015
  -83.864999999999995          6.0935486698003322E-015
  -83.849999999999994          6.8419721589176551E-015
  -83.834999999999994          7.5661522945351389E-015
  -83.819999999999993          8.2582739271649420E-015
  -83.805000000000007          8.9098735035980994E-015
  -83.790000000000006          9.5117607163569019E-015
  -83.775000000000006          1.0053962599520377E-014
  -83.760000000000005          1.0525701505867662E-014
  -83.745000000000005          1.0915406118306315E-014
  -83.730000000000004          1.1210764812947995E-014
  -83.715000000000003          1.1398829844160973E-014
  -83.700000000000003          1.1466179974896004E-014
  -83.685000000000002          1.1399135623054932E-014
  -83.670000000000002          1.1184037535330333E-014
  -83.655000000000001          1.0807583059285579E-014
  -83.640000000000001          1.0257219166642361E-014
  -83.625000000000000          9.5215862985450518E-015
  -83.609999999999999          8.5910062565383236E-015
  -83.594999999999999          7.4580039748626571E-015
  -83.579999999999998          6.1178470804417427E-015
  -83.564999999999998          4.5690930761664063E-015
  -83.549999999999997          2.8141242422008005E-015
  -83.534999999999997          8.5965649102546799E-016
  -83.519999999999996         -1.2828056699908650E-015
  -83.504999999999995         -3.5965802445893803E-015
  -83.489999999999995         -6.0595076861996028E-015
  -83.474999999999994         -8.6437611625592159E-015
  -83.459999999999994         -1.1315782498847425E-014
  -83.444999999999993         -1.4036361692902882E-014
  -83.430000000000007         -1.6760874507965387E-014
  -83.415000000000006         -1.9439683966292892E-014
  -83.400000000000006         -2.2018724801895102E-014
  -83.385000000000005         -2.4440251390625903E-014
  -83.370000000000005         -2.6643766945326497E-014
  -83.355000000000004         -2.8567124658656837E-014
  -83.340000000000003         -3.0147762677132720E-014
  -83.325000000000003         -3.1324101705488758E-014
  -83.310000000000002         -3.2037018844006601E-014
  -83.295000000000002         -3.2231440010455775E-014
  -83.280000000000001         -3.1857942526429886E-014
  -83.265000000000001         -3.0874401749396083E-014
  -83.250000000000000         -2.9247583494635895E-014
  -83.234999999999999         -2.6954672082682082E-014
  -83.219999999999999         -2.3984676414011072E-014
  -83.204999999999998         -2.0339683577804898E-014
  -83.189999999999998         -1.6035888844015064E-014
  -83.174999999999997         -1.1104385945102328E-014
  -83.159999999999997         -5.5916710606403186E-015
  -83.144999999999996          4.4017652643867859E-016
  -83.129999999999995          6.9136629099908909E-015
  -83.114999999999995          1.3736411232654136E-014
  -83.099999999999994          2.0802077169645126E-014
  -83.084999999999994          2.7991645392094582E-014
  -83.069999999999993          3.5175103118862544E-014
  -83.055000000000007          4.2213472572095317E-014
  -83.040000000000006          4.8961180975411883E-014
  -83.025000000000006          5.5268730401753646E-014
  -83.010000000000005          6.0985613260788885E-014
  -82.995000000000005          6.5963422603895067E-014
  -82.980000000000004          7.0059118283203464E-014
  -82.965000000000003          7.3138320215698077E-014
  -82.950000000000003          7.5078655857423182E-014
  -82.935000000000002          7.5772945047365009E-014
  -82.920000000000002          7.5132269654852590E-014
  -82.905000000000001          7.3088812833996958E-014
  -82.890000000000001          6.9598325583633547E-014
  -82.875000000000000          6.4642261270349277E-014
  -82.859999999999999          5.8229374826686969E-014
  -82.844999999999999          5.0396891656612555E-014
  -82.829999999999998          4.1211070065392055E-014
  -82.814999999999998          3.0767160602010110E-014
  -82.799999999999997          1.9188764008195962E-014
  -82.784999999999997          6.6265615160355194E-015
  -82.769999999999996         -6.7435782706657538E-015
  -82.754999999999995         -2.0723089653247768E-014
  -82.739999999999995         -3.5093764239003608E-014
  -82.724999999999994         -4.9621297468129683E-014
  -82.709999999999994         -6.4059285762203821E-014
  -82.694999999999993         -7.8153609072654368E-014
  -82.680000000000007         -9.1647033657795557E-014
  -82.665000000000006         -1.0428406727568118E-013
  -82.650000000000006         -1.1581581776509003E-013
  -82.635000000000005         -1.2600489228409284E-013
  -82.620000000000005         -1.3463008648444824E-013
  -82.605000000000004         -1.4149086362182789E-013
  -82.590000000000003         -1.4641151518165335E-013
  -82.575000000000003         -1.4924484716648256E-013
  -82.560000000000002         -1.4987532428231004E-013
  -82.545000000000002         -1.4822165847125368E-013
  -82.530000000000001         -1.4423874692293809E-013
  -82.515000000000001         -1.3791886469688430E-013
  -82.500000000000000         -1.2929217971854173E-013
  -82.484999999999999         -1.1842656304390797E-013
  -82.469999999999999         -1.0542661307757356E-013
  -82.454999999999998         -9.0432049598253988E-014
  -82.439999999999998         -7.3615457263018214E-014
  -82.424999999999997         -5.5179449740981254E-014
  -82.409999999999997         -3.5353318850964849E-014
  -82.394999999999996         -1.4389287287738806E-014
  -82.379999999999995          7.4415867822789743E-015
  -82.364999999999995          2.9853696554768550E-014
  -82.349999999999994          5.2551299629163134E-014
  -82.334999999999994          7.5232964931622182E-014
  -82.319999999999993          9.7595901900424803E-014
  -82.305000000000007          1.1934013889949857E-013
  -82.290000000000006          1.4017241956997689E-013
  -82.275000000000006          1.5980981457868609E-013
  -82.260000000000005          1.7798288613323637E-013
  -82.245000000000005          1.9443847302635237E-013
  -82.230000000000004          2.0894203522307114E-013
  -82.215000000000003          2.2127952410948976E-013
  -82.200000000000003          2.3125885971822524E-013
  -82.185000000000002          2.3871098782553279E-013
  -82.170000000000002          2.4349061178777220E-013
  -82.155000000000001          2.4547651780205959E-013
  -82.140000000000001          2.4457191371944631E-013
  -82.125000000000000          2.4070440193986464E-013
  -82.109999999999999          2.3382597941212779E-013
  -82.094999999999999          2.2391309184403851E-013
  -82.079999999999998          2.1096672857007920E-013
  -82.064999999999998          1.9501270715448216E-013
  -82.049999999999997          1.7610220193978871E-013
  -82.034999999999997          1.5431246233078844E-013
  -82.019999999999996          1.2974786989163739E-013
  -82.004999999999995          1.0254129359857367E-013
  -81.989999999999995          7.2855607722958904E-014
  -81.974999999999994          4.0885480764862869E-014
  -81.960000000000008          6.8592736538982714E-015
  -81.944999999999993         -2.8959046803351401E-014
  -81.930000000000007         -6.6268090190627071E-014
  -81.915000000000006         -1.0472745175411913E-013
  -81.900000000000006         -1.4395654264996727E-013
  -81.885000000000005         -1.8353393349372638E-013
  -81.870000000000005         -2.2299748310937451E-013
  -81.855000000000004         -2.6184531431126812E-013
  -81.840000000000003         -2.9953795520343274E-013