  -90.000000000000000          0.0000000000000000     
  -89.984999999999999          0.0000000000000000     
  -89.969999999999999         -2.7953757608363897E-014
  -89.954999999999998         -1.4423358341009163E-013
  -89.939999999999998         -4.4999144384674783E-013
  -89.924999999999997         -1.0983390846125429E-012
  -89.909999999999997         -2.3067197024023711E-012
  -89.894999999999996         -4.3684595871229526E-012
  -89.879999999999995         -7.6613299038186256E-012
  -89.864999999999995         -1.2651023457987964E-011
  -89.849999999999994         -1.9887791066763860E-011
  -89.834999999999994         -2.9995034234175932E-011
  -89.819999999999993         -4.3649424352754096E-011
  -89.805000000000007         -6.1552964114586217E-011
  -89.790000000000006         -8.4398300848054220E-011
  -89.775000000000006         -1.1282952350200048E-010
  -89.760000000000005         -1.4740127174395212E-010
  -89.745000000000005         -1.8853958672071514E-010
  -89.730000000000004         -2.3650806313391115E-010
  -89.715000000000003         -2.9138277901630261E-010
  -89.700000000000003         -3.5303890366655821E-010
  -89.685000000000002         -4.2115122500518964E-010
  -89.670000000000002         -4.9520976208583534E-010
  -89.655000000000001         -5.7455029622843767E-010
  -89.640000000000001         -6.5839811380641322E-010
  -89.625000000000000         -7.4592232390813251E-010
  -89.609999999999999         -8.3629697611442566E-010
  -89.594999999999999         -9.2876328849911260E-010
  -89.579999999999998         -1.0226884894493082E-009
  -89.564999999999998         -1.1176142233892961E-009
  -89.549999999999997         -1.2132911342277453E-009
  -89.534999999999997         -1.3096934647904845E-009
  -89.519999999999996         -1.4070110632147248E-009
  -89.504999999999995         -1.5056175195482524E-009
  -89.489999999999995         -1.6060156537989201E-009
  -89.474999999999994         -1.7087601333898306E-009
  -89.459999999999994         -1.8143653246482927E-009
  -89.444999999999993         -1.9232011538861116E-009
  -89.430000000000007         -2.0353880803014590E-009
  -89.415000000000006         -2.1506960656836327E-009
  -89.400000000000006         -2.2684594203070674E-009
  -89.385000000000005         -2.3875150745311657E-009
  -89.370000000000005         -2.5061710484663990E-009
  -89.355000000000004         -2.6222108928664056E-009
  -89.340000000000003         -2.7329376539597661E-009
  -89.325000000000003         -2.8352589165336894E-009
  -89.310000000000002         -2.9258084843775123E-009
  -89.295000000000002         -3.0011009233277264E-009
  -89.280000000000001         -3.0577096410411286E-009
  -89.265000000000001         -3.0924593996672911E-009
  -89.250000000000000         -3.1026197166994507E-009
  -89.234999999999999         -3.0860853872383132E-009
  -89.219999999999999         -3.0415336915723401E-009
  -89.204999999999998         -2.9685414126845444E-009
  -89.189999999999998         -2.8676563346152761E-009
  -89.174999999999997         -2.7404110092277278E-009
  -89.159999999999997         -2.5892761268409004E-009
  -89.144999999999996         -2.4175557111760781E-009
  -89.129999999999995         -2.2292221402153700E-009
  -89.114999999999995         -2.0287032054255860E-009
  -89.099999999999994         -1.8206324225999992E-009
  -89.084999999999994         -1.6095755839273806E-009
  -89.069999999999993         -1.3997509817897935E-009
  -89.055000000000007         -1.1947625111474736E-009
  -89.040000000000006         -9.9736219283386163E-010
  -89.025000000000006         -8.0926015888493907E-010
  -89.010000000000005         -6.3099481195649787E-010
  -88.995000000000005         -4.6187570434952363E-010
  -88.980000000000004         -3.0000393835827310E-010
  -88.965000000000003         -1.4237235002045878E-010
  -88.950000000000003          1.4959285546400913E-011
  -88.935000000000002          1.7662256379669117E-010
  -88.920000000000002          3.4764638390250013E-010
  -88.905000000000001          5.3312820824658047E-010
  -88.890000000000001          7.3789119259259905E-010
  -88.875000000000000          9.6614893863034013E-010
  -88.859999999999999          1.2212001410105700E-009
  -88.844999999999999          1.5051736523830073E-009
  -88.829999999999998          1.8188416328612789E-009
  -88.814999999999998          2.1615134127017654E-009
  -88.799999999999997          2.5310198381589544E-009
  -88.784999999999997          2.9237892107403241E-009
  -88.769999999999996          3.3350104899909638E-009
  -88.754999999999995          3.7588763213136644E-009
  -88.739999999999995          4.1888892354791096E-009
  -88.724999999999994          4.6182093704771887E-009
  -88.709999999999994          5.0400261741856411E-009
  -88.694999999999993          5.4479234457005532E-009
  -88.680000000000007          5.8362159549574244E-009
  -88.665000000000006          6.2002372125391503E-009
  -88.650000000000006          6.5365535206751701E-009
  -88.635000000000005          6.8430932032015335E-009
  -88.620000000000005          7.1191825767868977E-009
  -88.605000000000004          7.3654833343539394E-009
  -88.590000000000003          7.5838357815882773E-009
  -88.575000000000003          7.7770225814788319E-009
  -88.560000000000002          7.9484685500119667E-009
  -88.545000000000002          8.1018916020525467E-009
  -88.530000000000001          8.2409377100134407E-009
  -88.515000000000001          8.3688265206660617E-009
  -88.500000000000000          8.4880289463740155E-009
  -88.484999999999999          8.5999998233887709E-009
  -88.469999999999999          8.7049949470952015E-009
  -88.454999999999998          8.8019733723854188E-009
  -88.439999999999998          8.8886080717998084E-009
  -88.424999999999997          8.9613960696510730E-009
  -88.409999999999997          9.0158600585255044E-009
  -88.394999999999996          9.0468388336262251E-009
  -88.379999999999995          9.0488319060000322E-009
  -88.364999999999995          9.0163911892204851E-009
  -88.349999999999994          8.9445100215357343E-009
  -88.334999999999994          8.8289997535184739E-009
  -88.319999999999993          8.6668183740812310E-009
  -88.305000000000007          8.4563183122554619E-009
  -88.290000000000006          8.1974063093070981E-009
  -88.275000000000006          7.8915896040143707E-009
  -88.260000000000005          7.5419075429294935E-009
  -88.245000000000005          7.1527530565163033E-009
  -88.230000000000004          6.7295822248070181E-009
  -88.215000000000003          6.2785447951796414E-009
  -88.200000000000003          5.8060471985754702E-009
  -88.185000000000002          5.3182862558287525E-009
  -88.170000000000002          4.8207837721747637E-009
  -88.155000000000001          4.3179522180025742E-009
  -88.140000000000001          3.8127314638813914E-009
  -88.125000000000000          3.3063163318303168E-009
  -88.109999999999999          2.7980053829423923E-009
  -88.094999999999999          2.2851802672363419E-009
  -88.079999999999998          1.7634258497878363E-009
  -88.064999999999998          1.2267846738467370E-009
  -88.049999999999997          6.6813526933273693E-010
  -88.034999999999997          7.9671602648545559E-011
  -88.019999999999996         -5.4654575309953657E-010
  -88.004999999999995         -1.2180013664320199E-009
  -87.989999999999995         -1.9411379170719556E-009
  -87.974999999999994         -2.7208104658171806E-009
  -87.959999999999994         -3.5598177738904724E-009
  -87.944999999999993         -4.4585464209490056E-009
  -87.930000000000007         -5.4147517580815929E-009
  -87.915000000000006         -6.4234955132747018E-009
  -87.900000000000006         -7.4772446012616456E-009
  -87.885000000000005         -8.5661335802456051E-009
  -87.870000000000005         -9.6783709935266415E-009
  -87.855000000000004         -1.0800767391572208E-008
  -87.840000000000003         -1.1919360609624619E-008
  -87.825000000000003         -1.3020085454229502E-008
  -87.810000000000002         -1.4089458488797391E-008
  -87.795000000000002         -1.5115226403850102E-008
  -87.780000000000001         -1.6086936227566184E-008
  -87.765000000000001         -1.6996398954916003E-008
  -87.750000000000000         -1.7838004851000733E-008
  -87.734999999999999         -1.8608870888670026E-008
  -87.719999999999999         -1.9308830090380980E-008
  -87.704999999999998         -1.9940225470804762E-008
  -87.689999999999998         -2.0507565423599772E-008
  -87.674999999999997         -2.1017036999637639E-008
  -87.659999999999997         -2.1475910827462030E-008
  -87.644999999999996         -2.1891896295755942E-008
  -87.629999999999995         -2.2272470090456409E-008
  -87.614999999999995         -2.2624240259006001E-008
  -87.599999999999994         -2.2952381328877891E-008
  -87.584999999999994         -2.3260174231154451E-008
  -87.569999999999993         -2.3548704319864555E-008
  -87.555000000000007         -2.3816706828938550E-008
  -87.540000000000006         -2.4060604175701883E-008
  -87.525000000000006         -2.4274704912841116E-008
  -87.510000000000005         -2.4451566105199163E-008
  -87.495000000000005         -2.4582488933333480E-008
  -87.480000000000004         -2.4658119102127785E-008
  -87.465000000000003         -2.4669096987395278E-008
  -87.450000000000003         -2.4606730875120775E-008
  -87.435000000000002         -2.4463615133640815E-008
  -87.420000000000002         -2.4234186213334397E-008
  -87.405000000000001         -2.3915154301334951E-008
  -87.390000000000001         -2.3505767998699412E-008
  -87.375000000000000         -2.3007931559959616E-008
  -87.359999999999999         -2.2426112522566655E-008
  -87.344999999999999         -2.1767085911506001E-008
  -87.329999999999998         -2.1039513242726571E-008
  -87.314999999999998         -2.0253386523449990E-008
  -87.299999999999997         -1.9419369223783178E-008
  -87.284999999999997         -1.8548096392123625E-008
  -87.269999999999996         -1.7649458783353111E-008
  -87.254999999999995         -1.6731938501379773E-008
  -87.239999999999995         -1.5802047670376851E-008
  -87.224999999999994         -1.4863882569216003E-008
  -87.209999999999994         -1.3918863395190328E-008
  -87.194999999999993         -1.2965648998886081E-008
  -87.180000000000007         -1.2000255011912486E-008
  -87.165000000000006         -1.1016358492099698E-008
  -87.150000000000006         -1.0005773987131761E-008
  -87.135000000000005         -8.9590708185482981E-009
  -87.120000000000005         -7.8662916180860520E-009
  -87.105000000000004         -6.7177179374766638E-009
  -87.090000000000003         -5.5046340818876160E-009
  -87.075000000000003         -4.2200412053716718E-009
  -87.060000000000002         -2.8592632705937149E-009
  -87.045000000000002         -1.4204079024082716E-009
  -87.030000000000001          9.5353849816071090E-011
  -87.015000000000001          1.6837079508391639E-009
  -87.000000000000000          3.3373264152203319E-009
  -86.984999999999999          5.0461963496672979E-009
  -86.969999999999999          6.7981291707042146E-009
  -86.954999999999998          8.5794171766906402E-009
  -86.939999999999998          1.0375587500277561E-008
  -86.924999999999997          1.2172208130323270E-008
  -86.909999999999997          1.3955689048827935E-008
  -86.894999999999996          1.5714014978129853E-008
  -86.879999999999995          1.7437375987583437E-008
  -86.864999999999995          1.9118626681802198E-008
  -86.849999999999994          2.0753557095076758E-008
  -86.834999999999994          2.2340959304756325E-008
  -86.819999999999993          2.3882462230062629E-008
  -86.805000000000007          2.5382160373510487E-008
  -86.790000000000006          2.6846064926644431E-008
  -86.775000000000006          2.8281396780016621E-008
  -86.760000000000005          2.9695781833538604E-008
  -86.745000000000005          3.1096409003339431E-008
  -86.730000000000004          3.2489193557694307E-008
  -86.715000000000003          3.3878027494438356E-008
  -86.700000000000003          3.5264140052504445E-008
  -86.685000000000002          3.6645669609924880E-008
  -86.670000000000002          3.8017407888446542E-008
  -86.655000000000001          3.9370817717099271E-008
  -86.640000000000001          4.0694249747730282E-008
  -86.625000000000000          4.1973414965923439E-008
  -86.609999999999999          4.3192056153884550E-008
  -86.594999999999999          4.4332765014587494E-008
  -86.579999999999998          4.5377930746326456E-008
  -86.564999999999998          4.6310702828122885E-008
  -86.549999999999997          4.7115975121414522E-008
  -86.534999999999997          4.7781256284906704E-008
  -86.519999999999996          4.8297419397158592E-008
  -86.504999999999995          4.8659256179917065E-008
  -86.489999999999995          4.8865803847775169E-008
  -86.474999999999994          4.8920401951590975E-008
  -86.459999999999994          4.8830521848231001E-008
  -86.444999999999993          4.8607308400505644E-008
  -86.430000000000007          4.8264929830565961E-008
  -86.415000000000006          4.7819728621334434E-008
  -86.400000000000006          4.7289248072956980E-008
  -86.385000000000005          4.6691209121263455E-008
  -86.370000000000005          4.6042465839946090E-008
  -86.355000000000004          4.5358046207866209E-008
  -86.340000000000003          4.4650334984908113E-008
  -86.325000000000003          4.3928405801807457E-008
  -86.310000000000002          4.3197630361646588E-008
  -86.295000000000002          4.2459486593315887E-008
  -86.280000000000001          4.1711679443778849E-008
  -86.265000000000001          4.0948474833157888E-008
  -86.250000000000000          4.0161271641636631E-008
  -86.234999999999999          3.9339372648328208E-008
  -86.219999999999999          3.8470879815122316E-008
  -86.204999999999998          3.7543639308523780E-008
  -86.189999999999998          3.6546218495914218E-008
  -86.174999999999997          3.5468804782112784E-008
  -86.159999999999997          3.4303980100958142E-008
  -86.144999999999996          3.3047317771206508E-008
  -86.129999999999995          3.1697759084181598E-008
  -86.114999999999995          3.0257758965035464E-008
  -86.099999999999994          2.8733145640558178E-008
  -86.084999999999994          2.7132788460448864E-008
  -86.069999999999993          2.5468009923201862E-008
  -86.055000000000007          2.3751852040732047E-008
  -86.040000000000006          2.1998209476237207E-008
  -86.025000000000006          2.0220916496782593E-008
  -86.010000000000005          1.8432849913097016E-008
  -85.995000000000005          1.6645095968215173E-008
  -85.980000000000004          1.4866265551916058E-008
  -85.965000000000003          1.3102003038056864E-008
  -85.950000000000003          1.1354714501976559E-008
  -85.935000000000002          9.6235428515001331E-009
  -85.920000000000002          7.9046014178629775E-009
  -85.905000000000001          6.1914442461841190E-009
  -85.890000000000001          4.4757380024407212E-009
  -85.875000000000000          2.7480977493610226E-009
  -85.859999999999999          9.9902441874633041E-010
  -85.844999999999999         -7.8012540871696956E-010
  -85.829999999999998         -2.5962025862469318E-009
  -85.814999999999998         -4.4534327336975821E-009
  -85.799999999999997         -6.3527467730750686E-009
  -85.784999999999997         -8.2913285126551273E-009
  -85.769999999999996         -1.0262414917860951E-008
  -85.754999999999995         -1.2255364723046114E-008
  -85.739999999999995         -1.4256006153345879E-008
  -85.724999999999994         -1.6247229339683145E-008
  -85.709999999999994         -1.8209808771985081E-008
  -85.694999999999993         -2.0123383848158483E-008
  -85.680000000000007         -2.1967540675404962E-008
  -85.665000000000006         -2.3722932951386611E-008
  -85.650000000000006         -2.5372360212827516E-008
  -85.635000000000005         -2.6901719962779680E-008
  -85.620000000000005         -2.8300782162204996E-008
  -85.605000000000004         -2.9563739900595465E-008
  -85.590000000000003         -3.0689463415001228E-008
  -85.575000000000003         -3.1681487655532692E-008
  -85.560000000000002         -3.2547674777561042E-008
  -85.545000000000002         -3.3299631496674920E-008
  -85.530000000000001         -3.3951859990111188E-008
  -85.515000000000001         -3.4520741820642797E-008
  -85.500000000000000         -3.5023408173628923E-008
  -85.484999999999999         -3.5476556803359927E-008
  -85.469999999999999         -3.5895311611966463E-008
  -85.454999999999998         -3.6292195915166303E-008
  -85.439999999999998         -3.6676301107263498E-008
  -85.424999999999997         -3.7052657830827229E-008
  -85.409999999999997         -3.7421937548742790E-008
  -85.394999999999996         -3.7780409911647439E-008
  -85.379999999999995         -3.8120251844020459E-008
  -85.364999999999995         -3.8430094662089687E-008
  -85.349999999999994         -3.8695862514259716E-008
  -85.334999999999994         -3.8901774246369314E-008
  -85.319999999999993         -3.9031490928209678E-008
  -85.305000000000007         -3.9069295354465794E-008
  -85.290000000000006         -3.9001250229375728E-008
  -85.275000000000006         -3.8816246217265871E-008
  -85.260000000000005         -3.8506868804688565E-008
  -85.245000000000005         -3.8070012919888541E-008
  -85.230000000000004         -3.7507241756884468E-008
  -85.215000000000003         -3.6824815197178395E-008
  -85.200000000000003         -3.6033423356229832E-008
  -85.185000000000002         -3.5147618149267146E-008
  -85.170000000000002         -3.4184999719855114E-008
  -85.155000000000001         -3.3165196811069109E-008
  -85.140000000000001         -3.2108722791690525E-008
  -85.125000000000000         -3.1035771286269664E-008
  -85.109999999999999         -2.9965033121470697E-008
  -85.094999999999999         -2.8912639393752215E-008
  -85.079999999999998         -2.7891246645594947E-008
  -85.064999999999998         -2.6909377837114334E-008
  -85.049999999999997         -2.5971040429340064E-008
  -85.034999999999997         -2.5075634013660419E-008
  -85.019999999999996         -2.4218168803713525E-008
  -85.004999999999995         -2.3389771897086575E-008
  -84.989999999999995         -2.2578444003329423E-008
  -84.974999999999994         -2.1770004465793136E-008
  -84.959999999999994         -2.0949174839302032E-008
  -84.944999999999993         -2.0100705100389860E-008
  -84.930000000000007         -1.9210483870324424E-008
  -84.915000000000006         -1.8266542056721846E-008
  -84.900000000000006         -1.7259878859476885E-008
  -84.885000000000005         -1.6185076390229369E-008
  -84.870000000000005         -1.5040626522022649E-008
  -84.855000000000004         -1.3828974410046158E-008
  -84.840000000000003         -1.2556277795283677E-008
  -84.825000000000003         -1.1231883867424131E-008
  -84.810000000000002         -9.8675787540969395E-009
  -84.795000000000002         -8.4766584862450145E-009
  -84.780000000000001         -7.0728924939089666E-009
  -84.765000000000001         -5.6694453576255910E-009
  -84.750000000000000         -4.2778527387099530E-009
  -84.734999999999999         -2.9071087759291458E-009
  -84.719999999999999         -1.5629439964470748E-009
  -84.704999999999998         -2.4734111980784235E-010
  -84.689999999999998          1.0416717488581639E-009
  -84.674999999999997          2.3099333557041746E-009
  -84.659999999999997          3.5667717668275145E-009
  -84.644999999999996          4.8243591344032666E-009
  -84.629999999999995          6.0968452508802784E-009
  -84.614999999999995          7.3993269289474028E-009
  -84.599999999999994          8.7467260101448119E-009
  -84.584999999999994          1.0152658269646508E-008
  -84.569999999999993          1.1628367602156686E-008
  -84.555000000000007          1.3181808533602180E-008
  -84.540000000000006          1.4816944116091690E-008
  -84.525000000000006          1.6533309832311716E-008
  -84.510000000000005          1.8325883033298851E-008
  -84.495000000000005          2.0185268567729509E-008
  -84.480000000000004          2.2098197050013368E-008
  -84.465000000000003          2.4048310010016394E-008
  -84.450000000000003          2.6017183074600325E-008
  -84.435000000000002          2.7985516126705079E-008
  -84.420000000000002          2.9934415834986794E-008
  -84.405000000000001          3.1846703052451630E-008
  -84.390000000000001          3.3708129620890759E-008
  -84.375000000000000          3.5508438855913482E-008
  -84.359999999999999          3.7242205763732272E-008
  -84.344999999999999          3.8909377053641947E-008
  -84.329999999999998          4.0515498511695114E-008
  -84.314999999999998          4.2071590655723412E-008
  -84.299999999999997          4.3593686882559268E-008
  -84.284999999999997          4.5102055423740239E-008
  -84.269999999999996          4.6620169058542160E-008
  -84.254999999999995          4.8173454558764206E-008
  -84.239999999999995          4.9787946210244627E-008
  -84.224999999999994          5.1488896701812337E-008
  -84.209999999999994          5.3299427094088969E-008
  -84.194999999999993          5.5239340213120158E-008
  -84.180000000000007          5.7324125890545474E-008
  -84.165000000000006          5.9564257526290021E-008
  -84.150000000000006          6.1964797737346089E-008
  -84.135000000000005          6.4525337961640616E-008
  -84.120000000000005          6.7240293333270529E-008
  -84.105000000000004          7.0099503091114457E-008
  -84.090000000000003          7.3089083230115648E-008
  -84.075000000000003          7.6192520737095037E-008
  -84.060000000000002          7.9391860197119968E-008
  -84.045000000000002          8.2668989875855914E-008
  -84.030000000000001          8.6006863853071991E-008
  -84.015000000000001          8.9390596258454025E-008
  -84.000000000000000          9.2808377871733683E-008
  -83.984999999999999          9.6252144032860087E-008
  -83.969999999999999          9.9717951229649771E-008
  -83.954999999999998          1.0320605525748761E-007
  -83.939999999999998          1.0672061989680515E-007
  -83.924999999999997          1.1026921953316560E-007
  -83.909999999999997          1.1386200782226297E-007
  -83.894999999999996          1.1751078687893823E-007
  -83.879999999999995          1.2122789883051155E-007
  -83.864999999999995          1.2502506763212295E-007
  -83.849999999999994          1.2891239009604760E-007
  -83.834999999999994          1.3289731271015626E-007
  -83.819999999999993          1.3698389977889747E-007
  -83.805000000000007          1.4117232183252781E-007
  -83.790000000000006          1.4545858562087233E-007
  -83.775000000000006          1.4983470464358106E-007
  -83.760000000000005          1.5428895494551398E-007
  -83.745000000000005          1.5880658565947670E-007
  -83.730000000000004          1.6337067165750341E-007
  -83.715000000000003          1.6796316515410581E-007
  -83.700000000000003          1.7256598994208616E-007
  -83.685000000000002          1.7716220668262395E-007
  -83.670000000000002          1.8173707871937950E-007
  -83.655000000000001          1.8627896736234106E-007
  -83.640000000000001          1.9078009927397943E-007
  -83.625000000000000          1.9523695016232523E-007
  -83.609999999999999          1.9965042952208023E-007
  -83.594999999999999          2.0402568168265134E-007
  -83.579999999999998          2.0837164527165442E-007
  -83.564999999999998          2.1270027161790495E-007
  -83.549999999999997          2.1702557262415212E-007
  -83.534999999999997          2.2136242705528275E-007
  -83.519999999999996          2.2572542945908936E-007
  -83.504999999999995          2.3012761118934577E-007
  -83.489999999999995          2.3457930353742995E-007
  -83.474999999999994          2.3908711455078446E-007
  -83.459999999999994          2.4365323270103545E-007
  -83.444999999999993          2.4827488687151344E-007
  -83.430000000000007          2.5294417582699680E-007
  -83.415000000000006          2.5764825295482296E-007
  -83.400000000000006          2.6236978101223940E-007
  -83.385000000000005          2.6708772793426760E-007
  -83.370000000000005          2.7177833317182376E-007
  -83.355000000000004          2.7641632982522424E-007
  -83.340000000000003          2.8097616677769111E-007
  -83.325000000000003          2.8543337293740478E-007
  -83.310000000000002          2.8976572252759070E-007
  -83.295000000000002          2.9395431511147763E-007
  -83.280000000000001          2.9798437140016176E-007
  -83.265000000000001          3.0184591537363303E-007
  -83.250000000000000          3.0553388796761283E-007
  -83.234999999999999          3.0904814707355399E-007
  -83.219999999999999          3.1239309805641824E-007
  -83.204999999999998          3.1557695479023096E-007
  -83.189999999999998          3.1861080174167000E-007
  -83.174999999999997          3.2150754236681678E-007
  -83.159999999999997          3.2428059171252244E-007
  -83.144999999999996          3.2694279639144952E-007
  -83.129999999999995          3.2950507034001930E-007
  -83.114999999999995          3.3197557058883831E-007
  -83.099999999999994          3.3435870250286825E-007
  -83.084999999999994          3.3665475029920344E-007
  -83.069999999999993          3.3885950756484817E-007
  -83.055000000000007          3.4096441936526389E-007
  -83.040000000000006          3.4295695172659180E-007
  -83.025000000000006          3.4482133060009801E-007
  -83.010000000000005          3.4653936609174707E-007
  -82.995000000000005          3.4809164617399802E-007
  -82.980000000000004          3.4945864513247216E-007
  -82.965000000000003          3.5062203096458688E-007
  -82.950000000000003          3.5156580224793288E-007
  -82.935000000000002          3.5227725447839475E-007
  -82.920000000000002          3.5274786114314338E-007
  -82.905000000000001          3.5297378531140566E-007
  -82.890000000000001          3.5295613542984938E-007
  -82.875000000000000          3.5270096532258322E-007
  -82.859999999999999          3.5221881944380584E-007
  -82.844999999999999          3.5152413602190791E-007
  -82.829999999999998          3.5063436598647968E-007
  -82.814999999999998          3.4956889294335269E-007
  -82.799999999999997          3.4834798157135083E-007
  -82.784999999999997          3.4699141338023765E-007
  -82.769999999999996          3.4551746352917689E-007
  -82.754999999999995          3.4394196291032131E-007
  -82.739999999999995          3.4227738865411084E-007
  -82.724999999999994          3.4053232411679346E-007
  -82.709999999999994          3.3871131677187805E-007
  -82.694999999999993          3.3681476452329662E-007
  -82.680000000000007          3.3483928518762696E-007
  -82.665000000000006          3.3277831334999064E-007
  -82.650000000000006          3.3062300985875481E-007
  -82.635000000000005          3.2836302921168681E-007
  -82.620000000000005          3.2598774168945965E-007
  -82.605000000000004          3.2348728495890100E-007
  -82.590000000000003          3.2085358725453261E-007
  -82.575000000000003          3.1808127687327215E-007
  -82.560000000000002          3.1516833587375004E-007
  -82.545000000000002          3.1211661166707927E-007
  -82.530000000000001          3.0893193070369307E-007
  -82.515000000000001          3.0562401320821664E-007
  -82.500000000000000          3.0220610369724454E-007
  -82.484999999999999          2.9869428885831439E-007
  -82.469999999999999          2.9510655963349564E-007
  -82.454999999999998          2.9146198698981607E-007
  -82.439999999999998          2.8777944294233748E-007
  -82.424999999999997          2.8407654895090673E-007
  -82.409999999999997          2.8036870958203508E-007
  -82.394999999999996          2.7666808932735876E-007
  -82.379999999999995          2.7298304416945030E-007
  -82.364999999999995          2.6931758156933938E-007
  -82.349999999999994          2.6567127520138456E-007
  -82.334999999999994          2.6203929337498266E-007
  -82.319999999999993          2.5841299589046685E-007
  -82.305000000000007          2.5478041720816691E-007
  -82.290000000000006          2.5112731805165822E-007
  -82.275000000000006          2.4743818016759178E-007
  -82.260000000000005          2.4369728635065258E-007
  -82.245000000000005          2.3988997099877452E-007
  -82.230000000000004          2.3600367171638936E-007
  -82.215000000000003          2.3202889565254736E-007
  -82.200000000000003          2.2795993004365300E-007
  -82.185000000000002          2.2379539643679891E-007
  -82.170000000000002          2.1953847806344129E-007
  -82.155000000000001          2.1519686299598106E-007
  -82.140000000000001          2.1078237466554128E-007
  -82.125000000000000          2.0631037500606908E-007
  -82.109999999999999          2.0179892601390748E-007
  -82.094999999999999          1.9726783762052946E-007
  -82.079999999999998          1.9273748819159664E-007
  -82.064999999999998          1.8822780134541972E-007
  -82.049999999999997          1.8375708066287189E-007
  -82.034999999999997          1.7934112861439644E-007
  -82.019999999999996          1.7499242233043333E-007
  -82.004999999999995          1.7071955937808525E-007
  -81.989999999999995          1.6652697354402335E-007
  -81.974999999999994          1.6241493483448721E-007
  -81.960000000000008          1.5837977684896032E-007
  -81.944999999999993          1.5441436573837564E-007
  -81.930000000000007          1.5050886759127025E-007
  -81.915000000000006          1.4665161529592297E-007
  -81.900000000000006          1.4283000382420141E-007
  -81.885000000000005          1.3903152762395621E-007
  -81.870000000000005          1.3524476116799633E-007
  -81.855000000000004          1.3146015476195316E-007
  -81.840000000000003          1.2767074508701626E-007