  -90.000000000000000          0.0000000000000000     
  -89.984999999999999          0.0000000000000000     
  -89.969999999999999          0.0000000000000000     
  -89.954999999999998          6.7848633612728103E-018
  -89.939999999999998          4.8560352543974735E-017
  -89.924999999999997          1.9944816140734053E-016
  -89.909999999999997          6.1658143444865169E-016
  -89.894999999999996          1.5929616067046040E-015
  -89.879999999999995          3.6292570816285567E-015
  -89.864999999999995          7.5272904229151116E-015
  -89.849999999999994          1.4507031643670731E-014
  -89.834999999999994          2.6347532418617356E-014
  -89.819999999999993          4.5550362255935423E-014
  -89.805000000000007          7.5521965796961771E-014
  -89.790000000000006          1.2076881920723703E-013
  -89.775000000000006          1.8709678446283962E-013
  -89.760000000000005          2.8180347053270716E-013
  -89.745000000000005          4.1385013363308409E-013
  -89.730000000000004          5.9399788690170374E-013
  -89.715000000000003          8.3489085870441793E-013
  -89.700000000000003          1.1510702330533307E-012
  -89.685000000000002          1.5589009033298296E-012
  -89.670000000000002          2.0763954791669370E-012
  -89.655000000000001          2.7229225818548031E-012
  -89.640000000000001          3.5187887759829950E-012
  -89.625000000000000          4.4846899631412196E-012
  -89.609999999999999          5.6410297440134816E-012
  -89.594999999999999          7.0071136393234923E-012
  -89.579999999999998          8.6002290358710987E-012
  -89.564999999999998          1.0434634059586223E-011
  -89.549999999999997          1.2520479444888544E-011
  -89.534999999999997          1.4862699612705477E-011
  -89.519999999999996          1.7459905049532765E-011
  -89.504999999999995          2.0303337136540200E-011
  -89.489999999999995          2.3375919255830269E-011
  -89.474999999999994          2.6651453613468767E-011
  -89.459999999999994          3.0094027964056025E-011
  -89.444999999999993          3.3657666931308228E-011
  -89.430000000000007          3.7286281701076618E-011
  -89.415000000000006          4.0913931964592365E-011
  -89.400000000000006          4.4465472970323106E-011
  -89.385000000000005          4.7857551255248154E-011
  -89.370000000000005          5.0999999362533188E-011
  -89.355000000000004          5.3797570565006225E-011
  -89.340000000000003          5.6152034411116603E-011
  -89.325000000000003          5.7964567173884873E-011
  -89.310000000000002          5.9138374752798484E-011
  -89.295000000000002          5.9581485578608095E-011
  -89.280000000000001          5.9209637193191611E-011
  -89.265000000000001          5.7949135073842584E-011
  -89.250000000000000          5.5739603904703117E-011
  -89.234999999999999          5.2536523742485741E-011
  -89.219999999999999          4.8313412298606195E-011
  -89.204999999999998          4.3063587418235016E-011
  -89.189999999999998          3.6801398733965485E-011
  -89.174999999999997          2.9562824410689359E-011
  -89.159999999999997          2.1405400021934362E-011
  -89.144999999999996          1.2407411036086113E-011
  -89.129999999999995          2.6663309147384462E-012
  -89.114999999999995         -7.7034888884552899E-012
  -89.099999999999994         -1.8573842117119987E-011
  -89.084999999999994         -2.9806344892246983E-011
  -89.069999999999993         -4.1256675159528911E-011
  -89.055000000000007         -5.2779249720691368E-011
  -89.040000000000006         -6.4232189012081164E-011
  -89.025000000000006         -7.5482432804196975E-011
  -89.010000000000005         -8.6410753552534914E-011
  -88.995000000000005         -9.6916578928851749E-011
  -88.980000000000004         -1.0692229740483228E-010
  -88.965000000000003         -1.1637697749922182E-010
  -88.950000000000003         -1.2525921966322073E-010
  -88.935000000000002         -1.3357903672073235E-010
  -88.920000000000002         -1.4137854775775338E-010
  -88.905000000000001         -1.4873145770533114E-010
  -88.890000000000001         -1.5574128098272411E-010
  -88.875000000000000         -1.6253809409505493E-010
  -88.859999999999999         -1.6927415025236314E-010
  -88.844999999999999         -1.7611812008766492E-010
  -88.829999999999998         -1.8324834705207849E-010
  -88.814999999999998         -1.9084508973143954E-010
  -88.799999999999997         -1.9908215354025316E-010
  -88.784999999999997         -2.0811803669307238E-010
  -88.769999999999996         -2.1808704842030124E-010
  -88.754999999999995         -2.2909051045072459E-010
  -88.739999999999995         -2.4118859687227712E-010
  -88.724999999999994         -2.5439295114892957E-010
  -88.709999999999994         -2.6866073254971923E-010
  -88.694999999999993         -2.8388991157868304E-010
  -88.680000000000007         -2.9991653605065949E-010
  -88.665000000000006         -3.1651392617959573E-010
  -88.650000000000006         -3.3339406235732838E-010
  -88.635000000000005         -3.5021124888956479E-010
  -88.620000000000005         -3.6656797042233791E-010
  -88.605000000000004         -3.8202307983681294E-010
  -88.590000000000003         -3.9610187352323578E-010
  -88.575000000000003         -4.0830810954517460E-010
  -88.560000000000002         -4.1813752460484466E-010
  -88.545000000000002         -4.2509229469800403E-010
  -88.530000000000001         -4.2869646721399590E-010
  -88.515000000000001         -4.2851130976906404E-010
  -88.500000000000000         -4.2415049250621450E-010
  -88.484999999999999         -4.1529429894993086E-010
  -88.469999999999999         -4.0170253234883546E-010
  -88.454999999999998         -3.8322550688363322E-010
  -88.439999999999998         -3.5981259638440122E-010
  -88.424999999999997         -3.3151811851261925E-010
  -88.409999999999997         -2.9850408256315575E-010
  -88.394999999999996         -2.6103966210833107E-010
  -88.379999999999995         -2.1949717043945327E-010
  -88.364999999999995         -1.7434473309485554E-010
  -88.349999999999994         -1.2613547706319395E-010
  -88.334999999999994         -7.5493729323472536E-011
  -88.319999999999993         -2.3098467583082538E-011
  -88.305000000000007          3.0335612494214459E-011
  -88.290000000000006          8.4078681517052445E-011
  -88.275000000000006          1.3740752979884974E-010
  -88.260000000000005          1.8962774406272587E-010
  -88.245000000000005          2.4009552679338242E-010
  -88.230000000000004          2.8823862741056416E-010
  -88.215000000000003          3.3357522299937159E-010
  -88.200000000000003          3.7573058553341809E-010
  -88.185000000000002          4.1445052945121574E-010
  -88.170000000000002          4.4961109835206514E-010
  -88.155000000000001          4.8122417162232978E-010
  -88.140000000000001          5.0943871343633873E-010
  -88.125000000000000          5.3453708126482979E-010
  -88.109999999999999          5.5692694900244533E-010
  -88.094999999999999          5.7712834511391975E-010
  -88.079999999999998          5.9575627764374417E-010
  -88.064999999999998          6.1349991753445465E-010
  -88.049999999999997          6.3109767411972939E-010
  -88.034999999999997          6.4931016119373908E-010
  -88.019999999999996          6.6889077610099434E-010
  -88.004999999999995          6.9055550167007596E-010
  -87.989999999999995          7.1495265263621377E-010
  -87.974999999999994          7.4263317717537802E-010
  -87.959999999999994          7.7402301235096616E-010
  -87.944999999999993          8.0939843716265614E-010
  -87.930000000000007          8.4886497830893859E-010
  -87.915000000000006          8.9234075684174741E-010
  -87.900000000000006          9.3954555246966720E-010
  -87.885000000000005          9.8999508590935648E-010
  -87.870000000000005          1.0430021291085723E-009
  -87.855000000000004          1.0976841657850400E-009
  -87.840000000000003          1.1529768251250516E-009
  -87.825000000000003          1.2076548649986307E-009
  -87.810000000000002          1.2603582622006115E-009
  -87.795000000000002          1.3096241868737479E-009
  -87.780000000000001          1.3539237508908286E-009
  -87.765000000000001          1.3917023089504710E-009
  -87.750000000000000          1.4214229793196864E-009
  -87.734999999999999          1.4416110527548653E-009
  -87.719999999999999          1.4508991785788794E-009
  -87.704999999999998          1.4480712184905542E-009
  -87.689999999999998          1.4321035468611854E-009
  -87.674999999999997          1.4022026872950732E-009
  -87.659999999999997          1.3578380642087495E-009
  -87.644999999999996          1.2987677600051484E-009
  -87.629999999999995          1.2250578329542350E-009
  -87.614999999999995          1.1370931973786469E-009
  -87.599999999999994          1.0355794000105334E-009
  -87.584999999999994          9.2153568109765160E-010
  -87.569999999999993          7.9627915372526559E-010
  -87.555000000000007          6.6139915766427748E-010
  -87.540000000000006          5.1872378614703507E-010
  -87.525000000000006          3.7027828025948395E-010
  -87.510000000000005          2.1823666485065729E-010
  -87.495000000000005          6.4867840265936394E-011
  -87.480000000000004         -8.7522371294834755E-011
  -87.465000000000003         -2.3665175374887326E-010
  -87.450000000000003         -3.8032271776344828E-010
  -87.435000000000002         -5.1648257892722427E-010
  -87.420000000000002         -6.4328059545815108E-010
  -87.405000000000001         -7.5912037766912022E-010
  -87.390000000000001         -8.6270612875694042E-010
  -87.375000000000000         -9.5308061442977987E-010
  -87.359999999999999         -1.0296541397281089E-009
  -87.344999999999999         -1.0922235338384212E-009
  -87.329999999999998         -1.1409795330763473E-009
  -87.314999999999998         -1.1765033391952784E-009
  -87.299999999999997         -1.1997511872863242E-009
  -87.284999999999997         -1.2120285886041415E-009
  -87.269999999999996         -1.2149529160510042E-009
  -87.254999999999995         -1.2104072188989790E-009
  -87.239999999999995         -1.2004858218617187E-009
  -87.224999999999994         -1.1874324856719909E-009
  -87.209999999999994         -1.1735746818786197E-009
  -87.194999999999993         -1.1612542039074469E-009
  -87.180000000000007         -1.1527571119884783E-009
  -87.165000000000006         -1.1502453434175663E-009
  -87.150000000000006         -1.1556905432641429E-009
  -87.135000000000005         -1.1708146674394015E-009
  -87.120000000000005         -1.1970365809688133E-009
  -87.105000000000004         -1.2354283152049561E-009
  -87.090000000000003         -1.2866806509137518E-009
  -87.075000000000003         -1.3510804697247636E-009
  -87.060000000000002         -1.4284998739455546E-009
  -87.045000000000002         -1.5183972967847126E-009
  -87.030000000000001         -1.6198312691173555E-009
  -87.015000000000001         -1.7314852884808829E-009
  -87.000000000000000         -1.8517040123455786E-009
  -86.984999999999999         -1.9785393323701328E-009
  -86.969999999999999         -2.1098049973744537E-009
  -86.954999999999998         -2.2431370094722070E-009
  -86.939999999999998         -2.3760595713184784E-009
  -86.924999999999997         -2.5060546970934183E-009
  -86.909999999999997         -2.6306306022405579E-009
  -86.894999999999996         -2.7473896491159167E-009
  -86.879999999999995         -2.8540931840126404E-009
  -86.864999999999995         -2.9487197128474918E-009
  -86.849999999999994         -3.0295170816430073E-009
  -86.834999999999994         -3.0950444429578283E-009
  -86.819999999999993         -3.1442048964436253E-009
  -86.805000000000007         -3.1762674712609851E-009
  -86.790000000000006         -3.1908755637743980E-009
  -86.775000000000006         -3.1880456052846284E-009
  -86.760000000000005         -3.1681524070847900E-009
  -86.745000000000005         -3.1319038473753835E-009
  -86.730000000000004         -3.0803042339044850E-009
  -86.715000000000003         -3.0146101170913653E-009
  -86.700000000000003         -2.9362761111428881E-009
  -86.685000000000002         -2.8468967183670202E-009
  -86.670000000000002         -2.7481426023712174E-009
  -86.655000000000001         -2.6416966392162067E-009
  -86.640000000000001         -2.5291877481237179E-009
  -86.625000000000000         -2.4121296071655252E-009
  -86.609999999999999         -2.2918635877999805E-009
  -86.594999999999999         -2.1695061303006469E-009
  -86.579999999999998         -2.0459081095935971E-009
  -86.564999999999998         -1.9216213065220700E-009
  -86.549999999999997         -1.7968776466759095E-009
  -86.534999999999997         -1.6715800965627636E-009
  -86.519999999999996         -1.5453063273440648E-009
  -86.504999999999995         -1.4173252571580974E-009
  -86.489999999999995         -1.2866261389632427E-009
  -86.474999999999994         -1.1519584175445630E-009
  -86.459999999999994         -1.0118833548844464E-009
  -86.444999999999993         -8.6483292749406360E-010
  -86.430000000000007         -7.0917693939520632E-010
  -86.415000000000006         -5.4329435394961934E-010
  -86.400000000000006         -3.6564676286765518E-010
  -86.385000000000005         -1.7485193848365554E-010
  -86.370000000000005          3.0245556059682599E-011
  -86.355000000000004          2.5050903018630777E-010
  -86.340000000000003          4.8645204531183595E-010
  -86.325000000000003          7.3819100832039908E-010
  -86.310000000000002          1.0054094223832521E-009
  -86.295000000000002          1.2873355714759782E-009
  -86.280000000000001          1.5827347210617404E-009
  -86.265000000000001          1.8899168896524543E-009
  -86.250000000000000          2.2067594418473391E-009
  -86.234999999999999          2.5307451689826621E-009
  -86.219999999999999          2.8590136924577791E-009
  -86.204999999999998          3.1884261897374699E-009
  -86.189999999999998          3.5156406674730079E-009
  -86.174999999999997          3.8371958943628215E-009
  -86.159999999999997          4.1496011071728844E-009
  -86.144999999999996          4.4494297135599936E-009
  -86.129999999999995          4.7334105524043935E-009
  -86.114999999999995          4.9985207084546346E-009
  -86.099999999999994          5.2420685570098158E-009
  -86.084999999999994          5.4617705913528880E-009
  -86.069999999999993          5.6558158156860827E-009
  -86.055000000000007          5.8229168153900446E-009
  -86.040000000000006          5.9623466164282490E-009
  -86.025000000000006          6.0739595575398653E-009
  -86.010000000000005          6.1581926225073857E-009
  -85.995000000000005          6.2160498970342815E-009
  -85.980000000000004          6.2490728147679420E-009
  -85.965000000000003          6.2592899752189624E-009
  -85.950000000000003          6.2491545271825544E-009
  -85.935000000000002          6.2214686735728719E-009
  -85.920000000000002          6.1792957417594607E-009
  -85.905000000000001          6.1258664807439800E-009
  -85.890000000000001          6.0644786969987763E-009
  -85.875000000000000          5.9983951139486180E-009
  -85.859999999999999          5.9307443400768989E-009
  -85.844999999999999          5.8644213929426314E-009
  -85.829999999999998          5.8020011017845263E-009
  -85.814999999999998          5.7456568391955898E-009
  -85.799999999999997          5.6970947959200657E-009
  -85.784999999999997          5.6574993578806243E-009
  -85.769999999999996          5.6274980231307836E-009
  -85.754999999999995          5.6071405296620469E-009
  -85.739999999999995          5.5958957467794335E-009
  -85.724999999999994          5.5926667741346137E-009
  -85.709999999999994          5.5958238043274378E-009
  -85.694999999999993          5.6032525286298096E-009
  -85.680000000000007          5.6124136449398065E-009
  -85.665000000000006          5.6204201293041933E-009
  -85.650000000000006          5.6241216128682936E-009
  -85.635000000000005          5.6201971965208486E-009
  -85.620000000000005          5.6052513741633447E-009
  -85.605000000000004          5.5759135086930200E-009
  -85.590000000000003          5.5289346434506115E-009
  -85.575000000000003          5.4612825373112628E-009
  -85.560000000000002          5.3702247093667665E-009
  -85.545000000000002          5.2534074868049174E-009
  -85.530000000000001          5.1089190655773109E-009
  -85.515000000000001          4.9353392483908465E-009
  -85.500000000000000          4.7317767482013551E-009
  -85.484999999999999          4.4978856195143635E-009
  -85.469999999999999          4.2338692551879831E-009
  -85.454999999999998          3.9404648433105649E-009
  -85.439999999999998          3.6189125030006153E-009
  -85.424999999999997          3.2709115416196255E-009
  -85.409999999999997          2.8985598365949272E-009
  -85.394999999999996          2.5042854456813757E-009
  -85.379999999999995          2.0907673370373914E-009
  -85.364999999999995          1.6608509012527861E-009
  -85.349999999999994          1.2174611319082373E-009
  -85.334999999999994          7.6351458488943535E-010
  -85.319999999999993          3.0183489041490930E-010
  -85.305000000000007         -1.6492521237587709E-010
  -85.290000000000006         -6.3435356967289636E-010
  -85.275000000000006         -1.1043371772601063E-009
  -85.260000000000005         -1.5731072000590984E-009
  -85.245000000000005         -2.0392685318171289E-009
  -85.230000000000004         -2.5018149774069798E-009
  -85.215000000000003         -2.9601272544255153E-009
  -85.200000000000003         -3.4139537863353553E-009
  -85.185000000000002         -3.8633776178187418E-009
  -85.170000000000002         -4.3087680090536651E-009
  -85.155000000000001         -4.7507198175367193E-009
  -85.140000000000001         -5.1899848863001807E-009
  -85.125000000000000         -5.6273927739880492E-009
  -85.109999999999999         -6.0637703747090654E-009
  -85.094999999999999         -6.4998584292652595E-009
  -85.079999999999998         -6.9362324772725970E-009
  -85.064999999999998         -7.3732273619953048E-009
  -85.049999999999997         -7.8108728374104430E-009
  -85.034999999999997         -8.2488371688782536E-009
  -85.019999999999996         -8.6863893855593233E-009
  -85.004999999999995         -9.1223730791512025E-009
  -84.989999999999995         -9.5551992984610479E-009
  -84.974999999999994         -9.9828563193682385E-009
  -84.959999999999994         -1.0402938954712226E-008
  -84.944999999999993         -1.0812690298678262E-008
  -84.930000000000007         -1.1209065675643615E-008
  -84.915000000000006         -1.1588805470807984E-008
  -84.900000000000006         -1.1948520395321793E-008
  -84.885000000000005         -1.2284782968663421E-008
  -84.870000000000005         -1.2594231435514303E-008
  -84.855000000000004         -1.2873664800849838E-008
  -84.840000000000003         -1.3120143194100820E-008
  -84.825000000000003         -1.3331077575173822E-008
  -84.810000000000002         -1.3504314111401072E-008
  -84.795000000000002         -1.3638204343635607E-008
  -84.780000000000001         -1.3731657588778035E-008
  -84.765000000000001         -1.3784182684162261E-008
  -84.750000000000000         -1.3795901310231784E-008
  -84.734999999999999         -1.3767548878718117E-008
  -84.719999999999999         -1.3700451440001871E-008
  -84.704999999999998         -1.3596483938727033E-008
  -84.689999999999998         -1.3458007153133167E-008
  -84.674999999999997         -1.3287790423532897E-008
  -84.659999999999997         -1.3088919281756262E-008
  -84.644999999999996         -1.2864687093383509E-008
  -84.629999999999995         -1.2618483147264214E-008
  -84.614999999999995         -1.2353671863252202E-008
  -84.599999999999994         -1.2073475552654145E-008
  -84.584999999999994         -1.1780853625964482E-008
  -84.569999999999993         -1.1478394235098222E-008
  -84.555000000000007         -1.1168213021051088E-008
  -84.540000000000006         -1.0851867848771235E-008
  -84.525000000000006         -1.0530287752885670E-008
  -84.510000000000005         -1.0203722311530328E-008
  -84.495000000000005         -9.8717158891759027E-009
  -84.480000000000004         -9.5330969784868103E-009
  -84.465000000000003         -9.1859977402464210E-009
  -84.450000000000003         -8.8278948595643669E-009
  -84.435000000000002         -8.4556646129385626E-009
  -84.420000000000002         -8.0656725742755953E-009
  -84.405000000000001         -7.6538677618032125E-009
  -84.390000000000001         -7.2159012098893527E-009
  -84.375000000000000         -6.7472516462885324E-009
  -84.359999999999999         -6.2433609393508505E-009
  -84.344999999999999         -5.6997735420338813E-009
  -84.329999999999998         -5.1122746036469380E-009
  -84.314999999999998         -4.4770227525248174E-009
  -84.299999999999997         -3.7906766614526077E-009
  -84.284999999999997         -3.0505065140573606E-009
  -84.269999999999996         -2.2544870414975549E-009
  -84.254999999999995         -1.4013736837625856E-009
  -84.239999999999995         -4.9075415953225843E-010
  -84.224999999999994          4.7692411131450285E-010
  -84.209999999999994          1.5003529529877824E-009
  -84.194999999999993          2.5773876366486093E-009
  -84.180000000000007          3.7050980061792416E-009
  -84.165000000000006          4.8798436402819334E-009
  -84.150000000000006          6.0973701643263212E-009
  -84.135000000000005          7.3529267119454289E-009
  -84.120000000000005          8.6413987077094134E-009
  -84.105000000000004          9.9574508638511361E-009
  -84.090000000000003          1.1295678170597512E-008
  -84.075000000000003          1.2650759551036117E-008
  -84.060000000000002          1.4017605742822070E-008
  -84.045000000000002          1.5391503183082023E-008
  -84.030000000000001          1.6768241906106596E-008
  -84.015000000000001          1.8144223901117584E-008
  -84.000000000000000          1.9516557259180445E-008
  -83.984999999999999          2.0883117457515255E-008
  -83.969999999999999          2.2242582886633500E-008
  -83.954999999999998          2.3594452613906469E-008
  -83.939999999999998          2.4939014409142146E-008
  -83.924999999999997          2.6277305664734740E-008
  -83.909999999999997          2.7611033459606915E-008
  -83.894999999999996          2.8942473306869942E-008
  -83.879999999999995          3.0274346585201783E-008
  -83.864999999999995          3.1609680206656776E-008
  -83.849999999999994          3.2951657402691126E-008
  -83.834999999999994          3.4303457852047359E-008
  -83.819999999999993          3.5668097808638777E-008
  -83.805000000000007          3.7048259571292874E-008
  -83.790000000000006          3.8446174244199938E-008
  -83.775000000000006          3.9863458312083822E-008
  -83.760000000000005          4.1301024822359977E-008
  -83.745000000000005          4.2758983909152448E-008
  -83.730000000000004          4.4236578844447649E-008
  -83.715000000000003          4.5732164721812296E-008
  -83.700000000000003          4.7243204903679725E-008
  -83.685000000000002          4.8766310101200361E-008
  -83.670000000000002          5.0297291664946897E-008
  -83.655000000000001          5.1831257508183626E-008
  -83.640000000000001          5.3362729346417836E-008
  -83.625000000000000          5.4885784805946969E-008
  -83.609999999999999          5.6394213743260480E-008
  -83.594999999999999          5.7881695880723782E-008
  -83.579999999999998          5.9341964231407474E-008
  -83.564999999999998          6.0768996945625986E-008
  -83.549999999999997          6.2157191393907851E-008
  -83.534999999999997          6.3501502722829173E-008
  -83.519999999999996          6.4797632148838602E-008
  -83.504999999999995          6.6042105117958272E-008
  -83.489999999999995          6.7232406308903592E-008
  -83.474999999999994          6.8367022265647392E-008
  -83.459999999999994          6.9445491135411430E-008
  -83.444999999999993          7.0468409774093743E-008
  -83.430000000000007          7.1437405324559222E-008
  -83.415000000000006          7.2355057056938676E-008
  -83.400000000000006          7.3224818208927900E-008
  -83.385000000000005          7.4050866771813162E-008
  -83.370000000000005          7.4837991803633486E-008
  -83.355000000000004          7.5591394477214635E-008
  -83.340000000000003          7.6316517549912533E-008
  -83.325000000000003          7.7018860622501961E-008
  -83.310000000000002          7.7703759870928479E-008
  -83.295000000000002          7.8376210410624481E-008
  -83.280000000000001          7.9040660239115823E-008
  -83.265000000000001          7.9700861022047320E-008
  -83.250000000000000          8.0359718879208231E-008
  -83.234999999999999          8.1019159381412464E-008
  -83.219999999999999          8.1680020969088218E-008
  -83.204999999999998          8.2342026530568546E-008
  -83.189999999999998          8.3003733664099855E-008
  -83.174999999999997          8.3662534677841904E-008
  -83.159999999999997          8.4314748960423458E-008
  -83.144999999999996          8.4955672718933783E-008
  -83.129999999999995          8.5579713982042449E-008
  -83.114999999999995          8.6180520497691759E-008
  -83.099999999999994          8.6751185790490126E-008
  -83.084999999999994          8.7284419691968651E-008
  -83.069999999999993          8.7772782819683925E-008
  -83.055000000000007          8.8208899740038760E-008
  -83.040000000000006          8.8585650814820838E-008
  -83.025000000000006          8.8896420891160233E-008
  -83.010000000000005          8.9135305358922778E-008
  -82.995000000000005          8.9297273575539293E-008
  -82.980000000000004          8.9378339396262163E-008
  -82.965000000000003          8.9375674861003063E-008
  -82.950000000000003          8.9287723881170677E-008
  -82.935000000000002          8.9114237766807491E-008
  -82.920000000000002          8.8856296542871860E-008
  -82.905000000000001          8.8516266316673864E-008
  -82.890000000000001          8.8097763750738523E-008
  -82.875000000000000          8.7605499743403925E-008
  -82.859999999999999          8.7045179952838225E-008
  -82.844999999999999          8.6423298739646270E-008
  -82.829999999999998          8.5746961531185661E-008
  -82.814999999999998          8.5023643237036595E-008
  -82.799999999999997          8.4260975086181134E-008
  -82.784999999999997          8.3466510147900408E-008
  -82.769999999999996          8.2647467536389740E-008
  -82.754999999999995          8.1810547669647349E-008
  -82.739999999999995          8.0961719106653618E-008
  -82.724999999999994          8.0106040911687160E-008
  -82.709999999999994          7.9247520545777661E-008
  -82.694999999999993          7.8389014390722878E-008
  -82.680000000000007          7.7532178011097130E-008
  -82.665000000000006          7.6677423521687160E-008
  -82.650000000000006          7.5823948009201558E-008
  -82.635000000000005          7.4969811691971699E-008
  -82.620000000000005          7.4112030290507391E-008
  -82.605000000000004          7.3246731346898741E-008
  -82.590000000000003          7.2369317649645382E-008
  -82.575000000000003          7.1474687501904555E-008
  -82.560000000000002          7.0557447884311841E-008
  -82.545000000000002          6.9612120512374531E-008
  -82.530000000000001          6.8633447369848000E-008
  -82.515000000000001          6.7616539922710217E-008
  -82.500000000000000          6.6557170441683411E-008
  -82.484999999999999          6.5451921216208575E-008
  -82.469999999999999          6.4298383506411483E-008
  -82.454999999999998          6.3095299651649839E-008
  -82.439999999999998          6.1842641230214213E-008
  -82.424999999999997          6.0541694324456330E-008
  -82.409999999999997          5.9195066626216430E-008
  -82.394999999999996          5.7806659015113837E-008
  -82.379999999999995          5.6381594504273380E-008
  -82.364999999999995          5.4926104553487676E-008
  -82.349999999999994          5.3447386960669974E-008
  -82.334999999999994          5.1953403357174466E-008
  -82.319999999999993          5.0452690913971310E-008
  -82.305000000000007          4.8954110098975434E-008
  -82.290000000000006          4.7466606645230058E-008
  -82.275000000000006          4.5998969966376535E-008
  -82.260000000000005          4.4559570255842118E-008
  -82.245000000000005          4.3156131113164520E-008
  -82.230000000000004          4.1795509275743825E-008
  -82.215000000000003          4.0483502772303837E-008
  -82.200000000000003          3.9224683945349170E-008
  -82.185000000000002          3.8022285764327535E-008
  -82.170000000000002          3.6878116560501439E-008
  -82.155000000000001          3.5792517394384049E-008
  -82.140000000000001          3.4764386924734936E-008
  -82.125000000000000          3.3791216935696866E-008
  -82.109999999999999          3.2869209576347203E-008
  -82.094999999999999          3.1993405258390339E-008
  -82.079999999999998          3.1157874502696359E-008
  -82.064999999999998          3.0355923996694401E-008
  -82.049999999999997          2.9580332849832303E-008
  -82.034999999999997          2.8823622599816190E-008
  -82.019999999999996          2.8078309455281669E-008
  -82.004999999999995          2.7337186736531294E-008
  -81.989999999999995          2.6593578894562597E-008
  -81.974999999999994          2.5841597306452968E-008
  -81.960000000000008          2.5076364096321413E-008
  -81.944999999999993          2.4294205758224052E-008
  -81.930000000000007          2.3492816580983344E-008
  -81.915000000000006          2.2671365229598450E-008
  -81.900000000000006          2.1830572904946166E-008
  -81.885000000000005          2.0972727554635640E-008
  -81.870000000000005          2.0101651898585260E-008
  -81.855000000000004          1.9222623492964885E-008
  -81.840000000000003          1.8342248608860245E-008