  -90.000000000000000          0.0000000000000000     
  -89.984999999999999          0.0000000000000000     
  -89.969999999999999          0.0000000000000000     
  -89.954999999999998          0.0000000000000000     
  -89.939999999999998          0.0000000000000000     
  -89.924999999999997          0.0000000000000000     
  -89.909999999999997          0.0000000000000000     
  -89.894999999999996          0.0000000000000000     
  -89.879999999999995          0.0000000000000000     
  -89.864999999999995          0.0000000000000000     
  -89.849999999999994          0.0000000000000000     
  -89.834999999999994          0.0000000000000000     
  -89.819999999999993          0.0000000000000000     
  -89.805000000000007          0.0000000000000000     
  -89.790000000000006          0.0000000000000000     
  -89.775000000000006          0.0000000000000000     
  -89.760000000000005          0.0000000000000000     
  -89.745000000000005          0.0000000000000000     
  -89.730000000000004          0.0000000000000000     
  -89.715000000000003          0.0000000000000000     
  -89.700000000000003          0.0000000000000000     
  -89.685000000000002          0.0000000000000000     
  -89.670000000000002          0.0000000000000000     
  -89.655000000000001          0.0000000000000000     
  -89.640000000000001          0.0000000000000000     
  -89.625000000000000          0.0000000000000000     
  -89.609999999999999          0.0000000000000000     
  -89.594999999999999          0.0000000000000000     
  -89.579999999999998          0.0000000000000000     
  -89.564999999999998          0.0000000000000000     
  -89.549999999999997          0.0000000000000000     
  -89.534999999999997          0.0000000000000000     
  -89.519999999999996          0.0000000000000000     
  -89.504999999999995          0.0000000000000000     
  -89.489999999999995          0.0000000000000000     
  -89.474999999999994          0.0000000000000000     
  -89.459999999999994          0.0000000000000000     
  -89.444999999999993          0.0000000000000000     
  -89.430000000000007          0.0000000000000000     
  -89.415000000000006          0.0000000000000000     
  -89.400000000000006          0.0000000000000000     
  -89.385000000000005          0.0000000000000000     
  -89.370000000000005          0.0000000000000000     
  -89.355000000000004          0.0000000000000000     
  -89.340000000000003          0.0000000000000000     
  -89.325000000000003          0.0000000000000000     
  -89.310000000000002          0.0000000000000000     
  -89.295000000000002          0.0000000000000000     
  -89.280000000000001          0.0000000000000000     
  -89.265000000000001          0.0000000000000000     
  -89.250000000000000          0.0000000000000000     
  -89.234999999999999          0.0000000000000000     
  -89.219999999999999          0.0000000000000000     
  -89.204999999999998          0.0000000000000000     
  -89.189999999999998          0.0000000000000000     
  -89.174999999999997          0.0000000000000000     
  -89.159999999999997          0.0000000000000000     
  -89.144999999999996          0.0000000000000000     
  -89.129999999999995          0.0000000000000000     
  -89.114999999999995          0.0000000000000000     
  -89.099999999999994          0.0000000000000000     
  -89.084999999999994          0.0000000000000000     
  -89.069999999999993          0.0000000000000000     
  -89.055000000000007          0.0000000000000000     
  -89.040000000000006          0.0000000000000000     
  -89.025000000000006          0.0000000000000000     
  -89.010000000000005          0.0000000000000000     
  -88.995000000000005          0.0000000000000000     
  -88.980000000000004          0.0000000000000000     
  -88.965000000000003          0.0000000000000000     
  -88.950000000000003          0.0000000000000000     
  -88.935000000000002          0.0000000000000000     
  -88.920000000000002          0.0000000000000000     
  -88.905000000000001          0.0000000000000000     
  -88.890000000000001          0.0000000000000000     
  -88.875000000000000          0.0000000000000000     
  -88.859999999999999          0.0000000000000000     
  -88.844999999999999          0.0000000000000000     
  -88.829999999999998          0.0000000000000000     
  -88.814999999999998          0.0000000000000000     
  -88.799999999999997          0.0000000000000000     
  -88.784999999999997          0.0000000000000000     
  -88.769999999999996          1.4918079117460177E-038
  -88.754999999999995          1.4918079117460177E-038
  -88.739999999999995          1.4918079117460177E-038
  -88.724999999999994         -1.1829564052746636E-038
  -88.709999999999994         -6.6579849093914175E-038
  -88.694999999999993         -1.6552794389324815E-037
  -88.680000000000007         -3.0805075968728806E-037
  -88.665000000000006         -5.5274995926199803E-037
  -88.650000000000006         -9.5624804508349294E-037
  -88.635000000000005         -1.5882963409820855E-036
  -88.620000000000005         -2.5601314885101596E-036
  -88.605000000000004         -4.0049488573092517E-036
  -88.590000000000003         -6.0981775626475711E-036
  -88.575000000000003         -9.1360857310465281E-036
  -88.560000000000002         -1.3433502662491246E-035
  -88.545000000000002         -1.9080530458149734E-035
  -88.530000000000001         -2.6438710399634916E-035
  -88.515000000000001         -3.5927529814240965E-035
  -88.500000000000000         -4.8164893793359532E-035
  -88.484999999999999         -6.3836713048216890E-035
  -88.469999999999999         -8.3733762947214717E-035
  -88.454999999999998         -1.0882482187904217E-034
  -88.439999999999998         -1.4021877476121445E-034
  -88.424999999999997         -1.7948035495530097E-034
  -88.409999999999997         -2.2826022514868249E-034
  -88.394999999999996         -2.8840150079037585E-034
  -88.379999999999995         -3.6192212915520868E-034
  -88.364999999999995         -4.5099112690918848E-034
  -88.349999999999994         -5.5781895148596408E-034
  -88.334999999999994         -6.8465226646354455E-034
  -88.319999999999993         -8.3379531627603007E-034
  -88.305000000000007         -1.0071651209879706E-033
  -88.290000000000006         -1.2061467435524210E-033
  -88.275000000000006         -1.4312902785913676E-033
  -88.260000000000005         -1.6819098067840065E-033
  -88.245000000000005         -1.9555865648325283E-033
  -88.230000000000004         -2.2475558516897680E-033
  -88.215000000000003         -2.5499600386334557E-033
  -88.200000000000003         -2.8509562037500491E-033
  -88.185000000000002         -3.1336614930968553E-033
  -88.170000000000002         -3.3749302392351913E-033
  -88.155000000000001         -3.5439450210483276E-033
  -88.140000000000001         -3.6006402156144404E-033
  -88.125000000000000         -3.4939512463078557E-033
  -88.109999999999999         -3.1599161594224711E-033
  -88.094999999999999         -2.5196519371784185E-033
  -88.079999999999998         -1.4772672605653852E-033
  -88.064999999999998          8.2234829718642494E-035
  -88.049999999999997          2.2949455391011839E-033
  -88.034999999999997          5.3198569070156846E-033
  -88.019999999999996          9.3402951753255498E-033
  -88.004999999999995          1.4564827572013209E-032
  -87.989999999999995          2.1227413472406791E-032
  -87.974999999999994          2.9586555104511655E-032
  -87.959999999999994          3.9923161822711744E-032
  -87.944999999999993          5.2536780444323283E-032
  -87.930000000000007          6.7739872061474224E-032
  -87.915000000000006          8.5849749619225533E-032
  -87.900000000000006          1.0717768402167495E-031
  -87.885000000000005          1.3201484521952116E-031
  -87.870000000000005          1.6061465803985794E-031
  -87.855000000000004          1.9317113782528851E-031
  -87.840000000000003          2.2979285323405481E-031
  -87.825000000000003          2.7047229285725509E-031
  -87.810000000000002          3.1505025949495749E-031
  -87.795000000000002          3.6317544490547525E-031
  -87.780000000000001          4.1425911449814254E-031
  -87.765000000000001          4.6742536041238765E-031
  -87.750000000000000          5.2145709930725620E-031
  -87.734999999999999          5.7473915492494432E-031
  -87.719999999999999          6.2519922476450039E-031
  -87.704999999999998          6.7024811794902921E-031
  -87.689999999999998          7.0672145070589122E-031
  -87.674999999999997          7.3082510342882432E-031
  -87.659999999999997          7.3808711944910828E-031
  -87.644999999999996          7.2331914882085772E-031
  -87.629999999999995          6.8059124572214049E-031
  -87.614999999999995          6.0322425125158435E-031
  -87.599999999999994          4.8380380532103878E-031
  -87.584999999999994          3.1422115981943551E-031
  -87.569999999999993          8.5745500902722859E-032
  -87.555000000000007         -2.1086708855728477E-031
  -87.540000000000006         -5.8522310692128411E-031
  -87.525000000000006         -1.0470947267237768E-030
  -87.510000000000005         -1.6061721591556533E-030
  -87.495000000000005         -2.2717620751110180E-030
  -87.480000000000004         -3.0524287502717698E-030
  -87.465000000000003         -3.9555776109689928E-030
  -87.450000000000003         -4.9869796761883882E-030
  -87.435000000000002         -6.1502398579655096E-030
  -87.420000000000002         -7.4462131638713711E-030
  -87.405000000000001         -8.8723763247522717E-030
  -87.390000000000001         -1.0422158609305759E-029
  -87.375000000000000         -1.2084248188374096E-029
  -87.359999999999999         -1.3841890223757498E-029
  -87.344999999999999         -1.5672190223242062E-029
  -87.329999999999998         -1.7545441469752000E-029
  -87.314999999999998         -1.9424503608016019E-029
  -87.299999999999997         -2.1264264738352386E-029
  -87.284999999999997         -2.3011193036103749E-029
  -87.269999999999996         -2.4603035825083331E-029
  -87.254999999999995         -2.5968679646727401E-029
  -87.239999999999995         -2.7028202922242196E-029
  -87.224999999999994         -2.7693157318931732E-029
  -87.209999999999994         -2.7867095876299742E-029
  -87.194999999999993         -2.7446403563338193E-029
  -87.180000000000007         -2.6321398669714232E-029
  -87.165000000000006         -2.4377787785657860E-029
  -87.150000000000006         -2.1498424717668954E-029
  -87.135000000000005         -1.7565410955862865E-029
  -87.120000000000005         -1.2462521141994131E-029
  -87.105000000000004         -6.0779384918306130E-030
  -87.090000000000003          1.6927301088564188E-030
  -87.075000000000003          1.0943191120053498E-029
  -87.060000000000002          2.1753010086825411E-029
  -87.045000000000002          3.4184010676940661E-029
  -87.030000000000001          4.8276626886801996E-029
  -87.015000000000001          6.4046246595738517E-029
  -87.000000000000000          8.1479662137303480E-029
  -86.984999999999999          1.0053173151915977E-028
  -86.969999999999999          1.2112228790737227E-028
  -86.954999999999998          1.4313342827815803E-028
  -86.939999999999998          1.6640736480229204E-028
  -86.924999999999997          1.9074463132284655E-028
  -86.909999999999997          2.1590310233462562E-028
  -86.894999999999996          2.4159758372405196E-028
  -86.879999999999995          2.6750011369572074E-028
  -86.864999999999995          2.9324091370030959E-028
  -86.849999999999994          3.1841014584565293E-028
  -86.834999999999994          3.4256027216092376E-028
  -86.819999999999993          3.6520884719505308E-028
  -86.805000000000007          3.8584188839413255E-028
  -86.790000000000006          4.0391748722006021E-028
  -86.775000000000006          4.1886954063980773E-028
  -86.760000000000005          4.3011138631819047E-028
  -86.745000000000005          4.3703914892114579E-028
  -86.730000000000004          4.3903474938127124E-028
  -86.715000000000003          4.3546773453127164E-028
  -86.700000000000003          4.2569681784791465E-028
  -86.685000000000002          4.0906987945203077E-028
  -86.670000000000002          3.8492273832817374E-028
  -86.655000000000001          3.5257688935693594E-028
  -86.640000000000001          3.1133591627042695E-028
  -86.625000000000000          2.6048062867916397E-028
  -86.609999999999999          1.9926335650461156E-028
  -86.594999999999999          1.2690178700335963E-028
  -86.579999999999998          4.2572597161244782E-029
  -86.564999999999998         -5.4594143540550536E-029
  -86.549999999999997         -1.6551934257905939E-028
  -86.534999999999997         -2.9117687050478549E-028
  -86.519999999999996         -4.3259198408656123E-028
  -86.504999999999995         -5.9083534389165792E-028
  -86.489999999999995         -7.6701113370544140E-028
  -86.474999999999994         -9.6223764475012009E-028
  -86.459999999999994         -1.1776195904417945E-027
  -86.444999999999993         -1.4142100692740556E-027
  -86.430000000000007         -1.6729617424938946E-027
  -86.415000000000006         -1.9546659747154600E-027
  -86.400000000000006         -2.2598775300592328E-027
  -86.385000000000005         -2.5888280978975226E-027
  -86.370000000000005         -2.9413243148639131E-027
  -86.355000000000004         -3.3166335572075592E-027
  -86.340000000000003         -3.7133566368238636E-027
  -86.325000000000003         -4.1292920231933974E-027
  -86.310000000000002         -4.5612900504851096E-027
  -86.295000000000002         -5.0051025024276709E-027
  -86.280000000000001         -5.4552320045878223E-027
  -86.265000000000001         -5.9047844981366353E-027
  -86.250000000000000         -6.3453324988234602E-027
  -86.234999999999999         -6.7667902967155299E-027
  -86.219999999999999         -7.1573141930268407E-027
  -86.204999999999998         -7.5032366333140542E-027
  -86.189999999999998         -7.7890284592495871E-027
  -86.174999999999997         -7.9973162419911112E-027
  -86.159999999999997         -8.1089493045436174E-027
  -86.144999999999996         -8.1031283738797014E-027
  -86.129999999999995         -7.9576051072818019E-027
  -86.114999999999995         -7.6489540336503480E-027
  -86.099999999999994         -7.1529284653574821E-027
  -86.084999999999994         -6.4448957584144916E-027
  -86.069999999999993         -5.5003638617186039E-027
  -86.055000000000007         -4.2955864442415133E-027
  -86.040000000000006         -2.8082546890654047E-027
  -86.025000000000006         -1.0182627542393503E-027
  -86.010000000000005          1.0914585884442622E-027
  -85.995000000000005          3.5340529441874009E-027
  -85.980000000000004          6.3178094191742110E-027
  -85.965000000000003          9.4452118852539690E-027
  -85.950000000000003          1.2911986703880079E-026
  -85.935000000000002          1.6706172694539931E-026
  -85.920000000000002          2.0807247918118111E-026
  -85.905000000000001          2.5185321171505752E-026
  -85.890000000000001          2.9800447126912307E-026
  -85.875000000000000          3.4602070893669589E-026
  -85.859999999999999          3.9528636669267070E-026
  -85.844999999999999          4.4507415176028867E-026
  -85.829999999999998          4.9454534475992849E-026
  -85.814999999999998          5.4275288119701741E-026
  -85.799999999999997          5.8864683651051282E-026
  -85.784999999999997          6.3108311586881139E-026
  -85.769999999999996          6.6883504056429443E-026
  -85.754999999999995          7.0060801589578442E-026
  -85.739999999999995          7.2505697239012129E-026
  -85.724999999999994          7.4080731991995743E-026
  -85.709999999999994          7.4647799723333210E-026
  -85.694999999999993          7.4070766460091506E-026
  -85.680000000000007          7.2218225231793112E-026
  -85.665000000000006          6.8966522091544635E-026
  -85.650000000000006          6.4202831440972005E-026
  -85.635000000000005          5.7828336125744644E-026
  -85.620000000000005          4.9761426020027111E-026
  -85.605000000000004          3.9940838062660426E-026
  -85.590000000000003          2.8328685359778602E-026
  -85.575000000000003          1.4913330672285675E-026
  -85.560000000000002         -2.8800298610468393E-028
  -85.545000000000002         -1.7226899469927530E-026
  -85.530000000000001         -3.5821760786706069E-026
  -85.515000000000001         -5.5956221286235454E-026
  -85.500000000000000         -7.7477992295209141E-026
  -85.484999999999999         -1.0019814162682670E-025
  -85.469999999999999         -1.2389087633589607E-025
  -85.454999999999998         -1.4829378307489067E-025
  -85.439999999999998         -1.7310854916212049E-025
  -85.424999999999997         -1.9800217668796913E-025
  -85.409999999999997         -2.2260860954051075E-025
  -85.394999999999996         -2.4653076718753135E-025
  -85.379999999999995         -2.6934299754090599E-025
  -85.364999999999995         -2.9059389959952524E-025
  -85.349999999999994         -3.0980934330744797E-025
  -85.334999999999994         -3.2649599477607159E-025
  -85.319999999999993         -3.4014506337343184E-025
  -85.305000000000007         -3.5023619672492231E-025
  -85.290000000000006         -3.5624196735969289E-025
  -85.275000000000006         -3.5763250726846794E-025
  -85.260000000000005         -3.5388070945514010E-025
  -85.245000000000005         -3.4446784857071997E-025
  -85.230000000000004         -3.2888989180057790E-025
  -85.215000000000003         -3.0666459861259098E-025
  -85.200000000000003         -2.7733958192951824E-025
  -85.185000000000002         -2.4050128142179757E-025
  -85.170000000000002         -1.9578541591453987E-025
  -85.155000000000001         -1.4288879164920411E-025
  -85.140000000000001         -8.1582675941131125E-026
  -85.125000000000000         -1.1727962722297717E-026
  -85.109999999999999          6.6707908549307904E-026
  -85.094999999999999          1.5363215273194098E-025
  -85.079999999999998          2.4880601460151177E-025
  -85.064999999999998          3.5182264530912834E-025
  -85.049999999999997          4.6208336105748618E-025
  -85.034999999999997          5.7877304666436238E-025
  -85.019999999999996          7.0083507225101998E-025
  -85.004999999999995          8.2694617295275731E-025
  -84.989999999999995          9.5549248726891189E-025
  -84.974999999999994          1.0845478633879669E-024
  -84.959999999999994          1.2118544334877601E-024
  -84.944999999999993          1.3348085621506095E-024
  -84.930000000000007          1.4504522181971627E-024
  -84.915000000000006          1.5554715941798124E-024
  -84.900000000000006          1.6462049949917490E-024
  -84.885000000000005          1.7186612774906200E-024
  -84.870000000000005          1.7685502216433809E-024
  -84.855000000000004          1.7913273969902798E-024
  -84.840000000000003          1.7822535244279751E-024
  -84.825000000000003          1.7364702068564370E-024
  -84.810000000000002          1.6490938036266683E-024
  -84.795000000000002          1.5153259696750493E-024
  -84.780000000000001          1.3305835217498589E-024
  -84.765000000000001          1.0906442790711280E-024
  -84.750000000000000          7.9181060405705290E-025
  -84.734999999999999          4.3108719185050930E-025
  -84.719999999999999          6.3714877830262055E-027
  -84.704999999999998         -4.8334646580823306E-025
  -84.689999999999998         -1.0377787655077419E-024
  -84.674999999999997         -1.6551337171474930E-024
  -84.659999999999997         -2.3319144482460613E-024
  -84.644999999999996         -3.0627284042629691E-024
  -84.629999999999995         -3.8401137498957308E-024
  -84.614999999999995         -4.6543909646220584E-024
  -84.599999999999994         -5.4935472745772463E-024
  -84.584999999999994         -6.3431611191224965E-024
  -84.569999999999993         -7.1863721741305203E-024
  -84.555000000000007         -8.0039136952826525E-024
  -84.540000000000006         -8.7741992927684251E-024
  -84.525000000000006         -9.4734858310624962E-024
  -84.510000000000005         -1.0076111664918026E-023
  -84.495000000000005         -1.0554809028285146E-023
  -84.480000000000004         -1.0881106353372618E-023
  -84.465000000000003         -1.1025807898078214E-023
  -84.450000000000003         -1.0959561725840469E-023
  -84.435000000000002         -1.0653503416137347E-023
  -84.420000000000002         -1.0079975505631799E-023
  -84.405000000000001         -9.2133155602160804E-024
  -84.390000000000001         -8.0306947341540006E-024
  -84.375000000000000         -6.5130020831556751E-024
  -84.359999999999999         -4.6457545154316988E-024
  -84.344999999999999         -2.4200124619888809E-024
  -84.329999999999998          1.6671594086095216E-025
  -84.314999999999998          3.1096068579861803E-024
  -84.299999999999997          6.3957134549065098E-024
  -84.284999999999997          1.0003243794241856E-023
  -84.269999999999996          1.3900948728953700E-023
  -84.254999999999995          1.8047656030676745E-023
  -84.239999999999995          2.2391954056495929E-023
  -84.224999999999994          2.6872076575254255E-023
  -84.209999999999994          3.1415994275417806E-023
  -84.194999999999993          3.5941730309437822E-023
  -84.180000000000007          4.0357925118158848E-023
  -84.165000000000006          4.4564664734769213E-023
  -84.150000000000006          4.8454575723737472E-023
  -84.135000000000005          5.1914172555238533E-023
  -84.120000000000005          5.4825479503174781E-023
  -84.105000000000004          5.7067920755904997E-023
  -84.090000000000003          5.8520415630808616E-023
  -84.075000000000003          5.9063713602565189E-023
  -84.060000000000002          5.8582899725389362E-023
  -84.045000000000002          5.6970076760108624E-023
  -84.030000000000001          5.4127110410113482E-023
  -84.015000000000001          4.9968481842390737E-023
  -84.000000000000000          4.4424130742225900E-023
  -83.984999999999999          3.7442241569920434E-023
  -83.969999999999999          2.8991963553192955E-023
  -83.954999999999998          1.9065935042075942E-023
  -83.939999999999998          7.6826090708643239E-024
  -83.924999999999997         -5.1117030977095416E-024
  -83.909999999999997         -1.9241125271907424E-023
  -83.894999999999996         -3.4598896566690786E-023
  -83.879999999999995         -5.1046491823811459E-023
  -83.864999999999995         -6.8413204698823237E-023
  -83.849999999999994         -8.6496282161866216E-023
  -83.834999999999994         -1.0506153665372924E-022
  -83.819999999999993         -1.2384461141874190E-022
  -83.805000000000007         -1.4255274439775856E-022
  -83.790000000000006         -1.6086715374353579E-022
  -83.775000000000006         -1.7844599131596149E-022
  -83.760000000000005         -1.9492783260269962E-022
  -83.745000000000005         -2.0993572830879936E-022
  -83.730000000000004         -2.2308176081728371E-022
  -83.715000000000003         -2.3397202979007047E-022
  -83.700000000000003         -2.4221218050519604E-022
  -83.685000000000002         -2.4741308365533299E-022
  -83.670000000000002         -2.4919712099148290E-022
  -83.655000000000001         -2.4720452145376704E-022
  -83.640000000000001         -2.4110002546835373E-022
  -83.625000000000000         -2.3057962497503251E-022
  -83.609999999999999         -2.1537750540318012E-022
  -83.594999999999999         -1.9527291191707950E-022
  -83.579999999999998         -1.7009706614833681E-022
  -83.564999999999998         -1.3973998195410252E-022
  -83.549999999999997         -1.0415712340311146E-022
  -83.534999999999997         -6.3375873435105669E-023
  -83.519999999999996         -1.7501726418940354E-023
  -83.504999999999995          3.3275863232664797E-023
  -83.489999999999995          8.8678075788203039E-023
  -83.474999999999994          1.4833178792811389E-022
  -83.459999999999994          2.1176525452018793E-022
  -83.444999999999993          2.7840456347865878E-022
  -83.430000000000007          3.4757085266292945E-022
  -83.415000000000006          4.1847851758559567E-022
  -83.400000000000006          4.9023456770194725E-022
  -83.385000000000005          5.6183945944708401E-022
  -83.370000000000005          6.3218903998918620E-022
  -83.355000000000004          7.0007843473605544E-022
  -83.340000000000003          7.6420790383847512E-022
  -83.325000000000003          8.2319086963878189E-022
  -83.310000000000002          8.7556401409045249E-022
  -83.295000000000002          9.1980000150678318E-022
  -83.280000000000001          9.5432358394513070E-022
  -83.265000000000001          9.7752947363958100E-022
  -83.250000000000000          9.8780470878533400E-022
  -83.234999999999999          9.8355298831990794E-022
  -83.219999999999999          9.6322334859476587E-022
  -83.204999999999998          9.2534096050505556E-022
  -83.189999999999998          8.6854206656137990E-022
  -83.174999999999997          7.9161139182936608E-022
  -83.159999999999997          6.9352197824993566E-022
  -83.144999999999996          5.7347764428866719E-022
  -83.129999999999995          4.3095665627550921E-022
  -83.114999999999995          2.6575683862678444E-022
  -83.099999999999994          7.8040273859523212E-023
  -83.084999999999994         -1.3162235080388863E-022
  -83.069999999999993         -3.6220946049118988E-022
  -83.055000000000007         -6.1220947780111949E-022
  -83.040000000000006         -8.7958601826027819E-022
  -83.025000000000006         -1.1617488160656057E-021
  -83.010000000000005         -1.4555319262798478E-021
  -82.995000000000005         -1.7571810273264255E-021
  -82.980000000000004         -2.0623500888409717E-021
  -82.965000000000003         -2.3661109642199388E-021
  -82.950000000000003         -2.6629748981243182E-021
  -82.935000000000002         -2.9469286752417616E-021
  -82.920000000000002         -3.2114867229716487E-021
  -82.905000000000001         -3.4497583602395358E-021
  -82.890000000000001         -3.6545336255636435E-021
  -82.875000000000000         -3.8183836454055499E-021
  -82.859999999999999         -3.9337797837213155E-021
  -82.844999999999999         -3.9932281395903792E-021
  -82.829999999999998         -3.9894206046125777E-021
  -82.814999999999998         -3.9153996527958025E-021
  -82.799999999999997         -3.7647328239664599E-021
  -82.784999999999997         -3.5317001318770032E-021
  -82.769999999999996         -3.2114863190748653E-021
  -82.754999999999995         -2.8003755351520931E-021
  -82.739999999999995         -2.2959474286337239E-021
  -82.724999999999994         -1.6972663726208420E-021
  -82.709999999999994         -1.0050620066527916E-021
  -82.694999999999993         -2.2189526352873337E-022
  -82.680000000000007          6.4769539481318974E-022
  -82.665000000000006          1.5970724043640267E-021
  -82.650000000000006          2.6174078688580517E-021
  -82.635000000000005          3.6976261811859616E-021
  -82.620000000000005          4.8243863276670505E-021
  -82.605000000000004          5.9821100093627586E-021
  -82.590000000000003          7.1530540405751102E-021
  -82.575000000000003          8.3174359607463733E-021
  -82.560000000000002          9.4536113451470050E-021
  -82.545000000000002          1.0538304429939014E-020
  -82.530000000000001          1.1546895282789011E-020
  -82.515000000000001          1.2453759076166324E-020
  -82.500000000000000          1.3232653020461568E-020
  -82.484999999999999          1.3857162266035600E-020
  -82.469999999999999          1.4301170846869044E-020
  -82.454999999999998          1.4539392400935781E-020
  -82.439999999999998          1.4547906545131395E-020
  -82.424999999999997          1.4304739678847813E-020
  -82.409999999999997          1.3790441748580102E-020
  -82.394999999999996          1.2988667859294670E-020
  -82.379999999999995          1.1886756654623200E-020
  -82.364999999999995          1.0476281232075309E-020
  -82.349999999999994          8.7535645153342563E-021
  -82.334999999999994          6.7201538329775281E-021
  -82.319999999999993          4.3832308737120606E-021
  -82.305000000000007          1.7559527772078836E-021
  -82.290000000000006         -1.1422899778056318E-021
  -82.275000000000006         -4.2857091875488996E-021
  -82.260000000000005         -7.6420599542617321E-021
  -82.245000000000005         -1.1172688951868964E-020
  -82.230000000000004         -1.4832703860681122E-020
  -82.215000000000003         -1.8571267808149573E-020
  -82.200000000000003         -2.2332015382553503E-020
  -82.185000000000002         -2.6053594662483340E-020
  -82.170000000000002         -2.9670341724469152E-020
  -82.155000000000001         -3.3113060971566318E-020
  -82.140000000000001         -3.6309939555673310E-020
  -82.125000000000000         -3.9187542579206171E-020
  -82.109999999999999         -4.1671937543743709E-020
  -82.094999999999999         -4.3689867266286694E-020
  -82.079999999999998         -4.5170006806048036E-020
  -82.064999999999998         -4.6044268858856963E-020
  -82.049999999999997         -4.6249141463305887E-020
  -82.034999999999997         -4.5727028938071538E-020
  -82.019999999999996         -4.4427599281584622E-020
  -82.004999999999995         -4.2309102491131088E-020
  -81.989999999999995         -3.9339617796119485E-020
  -81.974999999999994         -3.5498258886082848E-020
  -81.960000000000008         -3.0776253122884140E-020
  -81.944999999999993         -2.5177936742390730E-020
  -81.930000000000007         -1.8721601422132550E-020
  -81.915000000000006         -1.1440184944801835E-020
  -81.900000000000006         -3.3818071692847952E-021
  -81.885000000000005          5.3898919077306225E-021
  -81.870000000000005          1.4795609980086947E-020
  -81.855000000000004          2.4740447055642543E-020
  -81.840000000000003          3.5114198281439623E-020