  -90.000000000000000          0.0000000000000000     
  -89.984999999999999          0.0000000000000000     
  -89.969999999999999          0.0000000000000000     
  -89.954999999999998          0.0000000000000000     
  -89.939999999999998          0.0000000000000000     
  -89.924999999999997          0.0000000000000000     
  -89.909999999999997          0.0000000000000000     
  -89.894999999999996          0.0000000000000000     
  -89.879999999999995          0.0000000000000000     
  -89.864999999999995          0.0000000000000000     
  -89.849999999999994          0.0000000000000000     
  -89.834999999999994          0.0000000000000000     
  -89.819999999999993          0.0000000000000000     
  -89.805000000000007          0.0000000000000000     
  -89.790000000000006          0.0000000000000000     
  -89.775000000000006          0.0000000000000000     
  -89.760000000000005          0.0000000000000000     
  -89.745000000000005          0.0000000000000000     
  -89.730000000000004          0.0000000000000000     
  -89.715000000000003          0.0000000000000000     
  -89.700000000000003          0.0000000000000000     
  -89.685000000000002          0.0000000000000000     
  -89.670000000000002          0.0000000000000000     
  -89.655000000000001          0.0000000000000000     
  -89.640000000000001          0.0000000000000000     
  -89.625000000000000          0.0000000000000000     
  -89.609999999999999          0.0000000000000000     
  -89.594999999999999          0.0000000000000000     
  -89.579999999999998          0.0000000000000000     
  -89.564999999999998          0.0000000000000000     
  -89.549999999999997          0.0000000000000000     
  -89.534999999999997          0.0000000000000000     
  -89.519999999999996          0.0000000000000000     
  -89.504999999999995          0.0000000000000000     
  -89.489999999999995          0.0000000000000000     
  -89.474999999999994          0.0000000000000000     
  -89.459999999999994          0.0000000000000000     
  -89.444999999999993          0.0000000000000000     
  -89.430000000000007          0.0000000000000000     
  -89.415000000000006          0.0000000000000000     
  -89.400000000000006          0.0000000000000000     
  -89.385000000000005          0.0000000000000000     
  -89.370000000000005          0.0000000000000000     
  -89.355000000000004          0.0000000000000000     
  -89.340000000000003          0.0000000000000000     
  -89.325000000000003          0.0000000000000000     
  -89.310000000000002         -1.6234063728679971E-038
  -89.295000000000002         -4.6317504899704332E-038
  -89.280000000000001         -1.1392952241647088E-037
  -89.265000000000001         -2.2857343800044227E-037
  -89.250000000000000         -3.8458082560241503E-037
  -89.234999999999999         -6.3981202748956232E-037
  -89.219999999999999         -1.0545782121016105E-036
  -89.204999999999998         -1.6898854125503877E-036
  -89.189999999999998         -2.6885031628427567E-036
  -89.174999999999997         -4.2511666384245566E-036
  -89.159999999999997         -6.6366679087365998E-036
  -89.144999999999996         -1.0215942739662846E-035
  -89.129999999999995         -1.5524535208034725E-035
  -89.114999999999995         -2.2947456304452035E-035
  -89.099999999999994         -3.3056462348557411E-035
  -89.084999999999994         -4.6852532984810034E-035
  -89.069999999999993         -6.5742064265036303E-035
  -89.055000000000007         -9.1464365959142730E-035
  -89.040000000000006         -1.2632194049666172E-034
  -89.025000000000006         -1.7319946134600449E-034
  -89.010000000000005         -2.3563085023482671E-034
  -88.995000000000005         -3.1779423193745828E-034
  -88.980000000000004         -4.2448616293879409E-034
  -88.965000000000003         -5.6097446505170073E-034
  -88.950000000000003         -7.3268562886753180E-034
  -88.935000000000002         -9.4465839255398780E-034
  -88.920000000000002         -1.2006740826653740E-033
  -88.905000000000001         -1.5018583268780989E-033
  -88.890000000000001         -1.8446891420790075E-033
  -88.875000000000000         -2.2180885960375534E-033
  -88.859999999999999         -2.5994228205351421E-033
  -88.844999999999999         -2.9489136377529243E-033
  -88.829999999999998         -3.2022343233940581E-033
  -88.814999999999998         -3.2606596987077875E-033
  -88.799999999999997         -2.9782405687670095E-033
  -88.784999999999997         -2.1453212712888305E-033
  -88.769999999999996         -4.6765063692522504E-034
  -88.754999999999995          2.4597476430345608E-033
  -88.739999999999995          7.1848455508364467E-033
  -88.724999999999994          1.4437963813568652E-032
  -88.709999999999994          2.5179083117141644E-032
  -88.694999999999993          4.0654016619127870E-032
  -88.680000000000007          6.2460103919925395E-032
  -88.665000000000006          9.2621872491332551E-032
  -88.650000000000006          1.3367675913271371E-031
  -88.635000000000005          1.8877021628018846E-031
  -88.620000000000005          2.6175912906088102E-031
  -88.605000000000004          3.5732105986041396E-031
  -88.590000000000003          4.8106556176045931E-031
  -88.575000000000003          6.3964257087282787E-031
  -88.560000000000002          8.4084041905844077E-031
  -88.545000000000002          1.0936634870841448E-030
  -88.530000000000001          1.4083773671156710E-030
  -88.515000000000001          1.7965050070961639E-030
  -88.500000000000000          2.2707552877094257E-030
  -88.484999999999999          2.8448578889335128E-030
  -88.469999999999999          3.5332802310010573E-030
  -88.454999999999998          4.3507889679866370E-030
  -88.439999999999998          5.3118216155465992E-030
  -88.424999999999997          6.4296245844214902E-030
  -88.409999999999997          7.7151121045598246E-030
  -88.394999999999996          9.1753943181117603E-030
  -88.379999999999995          1.0811923195699433E-029
  -88.364999999999995          1.2618208503873534E-029
  -88.349999999999994          1.4577040253021642E-029
  -88.334999999999994          1.6657187533072917E-029
  -88.319999999999993          1.8809521074852255E-029
  -88.305000000000007          2.0962548252338127E-029
  -88.290000000000006          2.3017337956332560E-029
  -88.275000000000006          2.4841866184515039E-029
  -88.260000000000005          2.6264818459066781E-029
  -88.245000000000005          2.7068945368362600E-029
  -88.230000000000004          2.6984081070922499E-029
  -88.215000000000003          2.5680048951905592E-029
  -88.200000000000003          2.2759654548304624E-029
  -88.185000000000002          1.7752107294479672E-029
  -88.170000000000002          1.0107274329613138E-029
  -88.155000000000001         -8.0878111460869049E-031
  -88.140000000000001         -1.5716397838629595E-029
  -88.125000000000000         -3.5422416733102573E-029
  -88.109999999999999         -6.0817021802391210E-029
  -88.094999999999999         -9.2866542377560726E-029
  -88.079999999999998         -1.3260133593253060E-028
  -88.064999999999998         -1.8109775656497025E-028
  -88.049999999999997         -2.3945334962046843E-028
  -88.034999999999997         -3.0875418310585156E-028
  -88.019999999999996         -3.9003362676984276E-028
  -88.004999999999995         -4.8422139921897066E-028
  -87.989999999999995         -5.9208252797539449E-028
  -87.974999999999994         -7.1414556043822701E-028
  -87.959999999999994         -8.5061950815468286E-028
  -87.944999999999993         -1.0013005114401486E-027
  -87.930000000000007         -1.1654671650857055E-027
  -87.915000000000006         -1.3417671773809019E-027
  -87.900000000000006         -1.5280958920825116E-027
  -87.885000000000005         -1.7214684066662259E-027
  -87.870000000000005         -1.9178897646484025E-027
  -87.855000000000004         -2.1122239923498465E-027
  -87.840000000000003         -2.2980698764143983E-027
  -87.825000000000003         -2.4676456969017612E-027
  -87.810000000000002         -2.6116886937444047E-027
  -87.795000000000002         -2.7193782221427836E-027
  -87.780000000000001         -2.7782879895027171E-027
  -87.765000000000001         -2.7743739220767389E-027
  -87.750000000000000         -2.6920084465171077E-027
  -87.734999999999999         -2.5140675419092934E-027
  -87.719999999999999         -2.2220786511917056E-027
  -87.704999999999998         -1.7964369630884490E-027
  -87.689999999999998         -1.2166986349433559E-027
  -87.674999999999997         -4.6195432683270015E-028
  -87.659999999999997          4.8871050117809426E-028
  -87.644999999999996          1.6556666990003027E-027
  -87.629999999999995          3.0581036548208164E-027
  -87.614999999999995          4.7133052417395497E-027
  -87.599999999999994          6.6358440086807085E-027
  -87.584999999999994          8.8367012230012000E-027
  -87.569999999999993          1.1322330290758677E-026
  -87.555000000000007          1.4093668754650067E-026
  -87.540000000000006          1.7145133728952581E-026
  -87.525000000000006          2.0463606549257030E-026
  -87.510000000000005          2.4027447466708279E-026
  -87.495000000000005          2.7805568890516008E-026
  -87.480000000000004          3.1756594141755001E-026
  -87.465000000000003          3.5828127140730236E-026
  -87.450000000000003          3.9956199279896858E-026
  -87.435000000000002          4.4064910430518545E-026
  -87.420000000000002          4.8066268705296131E-026
  -87.405000000000001          5.1860338369787342E-026
  -87.390000000000001          5.5335634272859399E-026
  -87.375000000000000          5.8369864485275580E-026
  -87.359999999999999          6.0830962598145408E-026
  -87.344999999999999          6.2578499044387899E-026
  -87.329999999999998          6.3465400568985910E-026
  -87.314999999999998          6.3339996336959057E-026
  -87.299999999999997          6.2048359864176091E-026
  -87.284999999999997          5.9436952933982550E-026
  -87.269999999999996          5.5355405099296501E-026
  -87.254999999999995          4.9659539703737160E-026
  -87.239999999999995          4.2214424554656801E-026
  -87.224999999999994          3.2897444166588046E-026
  -87.209999999999994          2.1601302671213146E-026
  -87.194999999999993          8.2368387565707074E-027
  -87.180000000000007         -7.2644236313259702E-027
  -87.165000000000006         -2.4948074335748444E-026
  -87.150000000000006         -4.4835063622631757E-026
  -87.135000000000005         -6.6920463422434212E-026
  -87.120000000000005         -9.1172796336144745E-026
  -87.105000000000004         -1.1753393933878570E-025
  -87.090000000000003         -1.4591968152872474E-025
  -87.075000000000003         -1.7622081497439533E-025
  -87.060000000000002         -2.0830478639181705E-025
  -87.045000000000002         -2.4201769394876194E-025
  -87.030000000000001         -2.7718674012913167E-025
  -87.015000000000001         -3.1362252435996332E-025
  -87.000000000000000         -3.5112144657200002E-025
  -86.984999999999999         -3.8946760539624408E-025
  -86.969999999999999         -4.2843410471483131E-025
  -86.954999999999998         -4.6778332483196718E-025
  -86.939999999999998         -5.0726605965731170E-025
  -86.924999999999997         -5.4661868173710133E-025
  -86.909999999999997         -5.8555892677868668E-025
  -86.894999999999996         -6.2377894181380524E-025
  -86.879999999999995         -6.6093645981720426E-025
  -86.864999999999995         -6.9664286818544922E-025
  -86.849999999999994         -7.3044920645585622E-025
  -86.834999999999994         -7.6182930440464285E-025
  -86.819999999999993         -7.9016050425855685E-025
  -86.805000000000007         -8.1470280518469432E-025
  -86.790000000000006         -8.3457598632424836E-025
  -86.775000000000006         -8.4873663121864443E-025
  -86.760000000000005         -8.5595431407096408E-025
  -86.745000000000005         -8.5479015259008417E-025
  -86.730000000000004         -8.4357708646804641E-025
  -86.715000000000003         -8.2040390294672657E-025
  -86.700000000000003         -7.8310527744890615E-025
  -86.685000000000002         -7.2925876604607114E-025
  -86.670000000000002         -6.5619057400378150E-025
  -86.655000000000001         -5.6099217116448735E-025
  -86.640000000000001         -4.4054933188960246E-025
  -86.625000000000000         -2.9158517728264530E-025
  -86.609999999999999         -1.1071874811145179E-025
  -86.594999999999999          1.0545978223489263E-025
  -86.579999999999998          3.6029649054539930E-025
  -86.564999999999998          6.5696321395663890E-025
  -86.549999999999997          9.9832980378990219E-025
  -86.534999999999997          1.3868187532775097E-024
  -86.519999999999996          1.8242459709194737E-024
  -86.504999999999995          2.3116466394386705E-024
  -86.489999999999995          2.8490928410003145E-024
  -86.474999999999994          3.4355038361642530E-024
  -86.459999999999994          4.0684562442296471E-024
  -86.444999999999993          4.7439949138329449E-024
  -86.430000000000007          5.4564593735487330E-024
  -86.415000000000006          6.1983223126193926E-024
  -86.400000000000006          6.9600535024489486E-024
  -86.385000000000005          7.7300188224072015E-024
  -86.370000000000005          8.4944139955136888E-024
  -86.355000000000004          9.2372511778022964E-024
  -86.340000000000003          9.9403976125056139E-024
  -86.325000000000003          1.0583675815389898E-023
  -86.310000000000002          1.1145032390988791E-023
  -86.295000000000002          1.1600784157205747E-023
  -86.280000000000001          1.1925932111954313E-023
  -86.265000000000001          1.2094562174497977E-023
  -86.250000000000000          1.2080316924271496E-023
  -86.234999999999999          1.1856946225792735E-023
  -86.219999999999999          1.1398927273334174E-023
  -86.204999999999998          1.0682146166745016E-023
  -86.189999999999998          9.6846339186757627E-024
  -86.174999999999997          8.3873387494044200E-024
  -86.159999999999997          6.7749236252116815E-024
  -86.144999999999996          4.8365705020737989E-024
  -86.129999999999995          2.5667721447961979E-024
  -86.114999999999995         -3.3915373638650520E-026
  -86.099999999999994         -2.9581745548220129E-024
  -86.084999999999994         -6.1913132834765039E-024
  -86.069999999999993         -9.7107554698303461E-024
  -86.055000000000007         -1.3485662371730961E-023
  -86.040000000000006         -1.7476702173304933E-023
  -86.025000000000006         -2.1635993384188064E-023
  -86.010000000000005         -2.5907238157018351E-023
  -85.995000000000005         -3.0226048086989843E-023
  -85.980000000000004         -3.4520493259042680E-023
  -85.965000000000003         -3.8711856398888476E-023
  -85.950000000000003         -4.2715603171923749E-023
  -85.935000000000002         -4.6442570207753177E-023
  -85.920000000000002         -4.9800331407277447E-023
  -85.905000000000001         -5.2694756731841966E-023
  -85.890000000000001         -5.5031712987348521E-023
  -85.875000000000000         -5.6718890826111770E-023
  -85.859999999999999         -5.7667726412024362E-023
  -85.844999999999999         -5.7795351484714638E-023
  -85.829999999999998         -5.7026578133584174E-023
  -85.814999999999998         -5.5295823618416516E-023
  -85.799999999999997         -5.2548975236557123E-023
  -85.784999999999997         -4.8745100573355888E-023
  -85.769999999999996         -4.3858037845752060E-023
  -85.754999999999995         -3.7877733810369504E-023
  -85.739999999999995         -3.0811382878663834E-023
  -85.724999999999994         -2.2684291708474542E-023
  -85.709999999999994         -1.3540466116538475E-023
  -85.694999999999993         -3.4429143955078992E-024
  -85.680000000000007          7.5263365144009467E-024
  -85.665000000000006          1.9266501349506574E-023
  -85.650000000000006          3.1658553226555162E-023
  -85.635000000000005          4.4565974243871879E-023
  -85.620000000000005          5.7835690675964020E-023
  -85.605000000000004          7.1299160812709303E-023
  -85.590000000000003          8.4773586649706295E-023
  -85.575000000000003          9.8063166599391900E-023
  -85.560000000000002          1.1096036713482057E-022
  -85.545000000000002          1.2324718496711268E-022
  -85.530000000000001          1.3469629562693249E-022
  -85.515000000000001          1.4507223991128963E-022
  -85.500000000000000          1.5413235158396365E-022
  -85.484999999999999          1.6162780498278609E-022
  -85.469999999999999          1.6730443543498201E-022
  -85.454999999999998          1.7090373637735409E-022
  -85.439999999999998          1.7216379336759448E-022
  -85.424999999999997          1.7082048315286069E-022
  -85.409999999999997          1.6660900090448814E-022
  -85.394999999999996          1.5926579134948610E-022
  -85.379999999999995          1.4853106050365996E-022
  -85.364999999999995          1.3415214568539828E-022
  -85.349999999999994          1.1588779429722275E-022
  -85.334999999999994          9.3513534390830929E-023
  -85.319999999999993          6.6828364207572499E-023
  -85.305000000000007          3.5662861668554952E-023
  -85.290000000000006         -1.1121913244439479E-025
  -85.275000000000006         -4.0569762670203278E-023
  -85.260000000000005         -8.5723539262660679E-023
  -85.245000000000005         -1.3550395035435949E-022
  -85.230000000000004         -1.8974742721432393E-022
  -85.215000000000003         -2.4817874573905326E-022
  -85.200000000000003         -3.1039351689586947E-022
  -85.185000000000002         -3.7584042157533169E-022
  -85.170000000000002         -4.4380360321583169E-022
  -85.155000000000001         -5.1338603230482454E-022
  -85.140000000000001         -5.8349438549299738E-022
  -85.125000000000000         -6.5282634808913894E-022
  -85.109999999999999         -7.1986145065186452E-022
  -85.094999999999999         -7.8285617174111636E-022
  -85.079999999999998         -8.3984424084075127E-022
  -85.064999999999998         -8.8864350460385963E-022
  -85.049999999999997         -9.2687021470148081E-022
  -85.034999999999997         -9.5196098971020446E-022
  -85.019999999999996         -9.6120447052257529E-022
  -85.004999999999995         -9.5178226538351759E-022
  -84.989999999999995         -9.2082004283344464E-022
  -84.974999999999994         -8.6544942889032593E-022
  -84.959999999999994         -7.8287939580616607E-022
  -84.944999999999993         -6.7047850554953951E-022
  -84.930000000000007         -5.2586563512057818E-022
  -84.915000000000006         -3.4700928467260796E-022
  -84.900000000000006         -1.3233325962989933E-022
  -84.885000000000005          1.1917292665092513E-022
  -84.870000000000005          4.0784113848636104E-022
  -84.855000000000004          7.3321215785537389E-022
  -84.840000000000003          1.0939266701331848E-021
  -84.825000000000003          1.4876228383913365E-021
  -84.810000000000002          1.9108441644439636E-021
  -84.795000000000002          2.3589623950492473E-021
  -84.780000000000001          2.8261176946983631E-021
  -84.765000000000001          3.3051826988017519E-021
  -84.750000000000000          3.7877500938630282E-021
  -84.734999999999999          4.2641536201117207E-021
  -84.719999999999999          4.7235183566528145E-021
  -84.704999999999998          5.1538489729139403E-021
  -84.689999999999998          5.5421577639257353E-021
  -84.674999999999997          5.8746282285191496E-021
  -84.659999999999997          6.1368230761689353E-021
  -84.644999999999996          6.3139302001347812E-021
  -84.629999999999995          6.3910470207968782E-021
  -84.614999999999995          6.3535019874955639E-021
  -84.599999999999994          6.1872083921136448E-021
  -84.584999999999994          5.8790436281560782E-021
  -84.569999999999993          5.4172526836366611E-021
  -84.555000000000007          4.7918641547650084E-021
  -84.540000000000006          3.9951102986013641E-021
  -84.525000000000006          3.0218462779178473E-021
  -84.510000000000005          1.8699534521367494E-021
  -84.495000000000005          5.4071868689731390E-022
  -84.480000000000004         -9.6082278806219315E-022
  -84.465000000000003         -2.6255916254847848E-021
  -84.450000000000003         -4.4402267683118753E-021
  -84.435000000000002         -6.3869175800826487E-021
  -84.420000000000002         -8.4433168556643186E-021
  -84.405000000000001         -1.0582540821252128E-020
  -84.390000000000001         -1.2773266473494167E-020
  -84.375000000000000         -1.4979932316192758E-020
  -84.359999999999999         -1.7163044514066328E-020
  -84.344999999999999         -1.9279594522023521E-020
  -84.329999999999998         -2.1283588189949549E-020
  -84.314999999999998         -2.3126672610514138E-020
  -84.299999999999997         -2.4758876058078856E-020
  -84.284999999999997         -2.6129428706961126E-020
  -84.269999999999996         -2.7187681900513416E-020
  -84.254999999999995         -2.7884080734577835E-020
  -84.239999999999995         -2.8171206111187501E-020
  -84.224999999999994         -2.8004839410487773E-020
  -84.209999999999994         -2.7345059474400165E-020
  -84.194999999999993         -2.6157333127937720E-020
  -84.180000000000007         -2.4413571773190582E-020
  -84.165000000000006         -2.2093149209220343E-020
  -84.150000000000006         -1.9183846750533374E-020
  -84.135000000000005         -1.5682715950610320E-020
  -84.120000000000005         -1.1596813694052025E-020
  -84.105000000000004         -6.9438185430711084E-021
  -84.090000000000003         -1.7524869389089004E-021
  -84.075000000000003          3.9370489242867472E-021
  -84.060000000000002          1.0073163969394254E-020
  -84.045000000000002          1.6592808494874718E-020
  -84.030000000000001          2.3421772525216698E-020
  -84.015000000000001          3.0475146455217767E-020
  -84.000000000000000          3.7657969304321983E-020
  -83.984999999999999          4.4866079323245886E-020
  -83.969999999999999          5.1987141507395654E-020
  -83.954999999999998          5.8901844746933317E-020
  -83.939999999999998          6.5485265382317759E-020
  -83.924999999999997          7.1608360006816442E-020
  -83.909999999999997          7.7139606903033433E-020
  -83.894999999999996          8.1946715334097069E-020
  -83.879999999999995          8.5898460850644054E-020
  -83.864999999999995          8.8866565834243313E-020
  -83.849999999999994          9.0727631739608128E-020
  -83.834999999999994          9.1365077799156805E-020
  -83.819999999999993          9.0671112039316028E-020
  -83.805000000000007          8.8548689372127135E-020
  -83.790000000000006          8.4913443837458252E-020
  -83.775000000000006          7.9695569146428147E-020
  -83.760000000000005          7.2841673375435935E-020
  -83.745000000000005          6.4316562574356900E-020
  -83.730000000000004          5.4104969444775757E-020
  -83.715000000000003          4.2213165695946276E-020
  -83.700000000000003          2.8670548551356768E-020
  -83.685000000000002          1.3531080236866381E-020
  -83.670000000000002         -3.1253589650702656E-021
  -83.655000000000001         -2.1191746908149154E-020
  -83.640000000000001         -4.0532838754424298E-020
  -83.625000000000000         -6.0984265476687028E-020
  -83.609999999999999         -8.2351788265003701E-020
  -83.594999999999999         -1.0441085989480885E-019
  -83.579999999999998         -1.2690637269531228E-019
  -83.564999999999998         -1.4955282010821251E-019
  -83.549999999999997         -1.7203474905209417E-019
  -83.534999999999997         -1.9400770342531431E-019
  -83.519999999999996         -2.1509965874737718E-019
  -83.504999999999995         -2.3491303841167743E-019
  -83.489999999999995         -2.5302738909779375E-019
  -83.474999999999994         -2.6900270241863623E-019
  -83.459999999999994         -2.8238364129638857E-019
  -83.444999999999993         -2.9270445134739512E-019
  -83.430000000000007         -2.9949490624281364E-019
  -83.415000000000006         -3.0228705440048639E-019
  -83.400000000000006         -3.0062302550197112E-019
  -83.385000000000005         -2.9406369003957875E-019
  -83.370000000000005         -2.8219832698978255E-019
  -83.355000000000004         -2.6465498942026924E-019
  -83.340000000000003         -2.4111174897639082E-019
  -83.325000000000003         -2.1130853490368180E-019
  -83.310000000000002         -1.7505946420886503E-019
  -83.295000000000002         -1.3226537861601071E-019
  -83.280000000000001         -8.2926465533226381E-020
  -83.265000000000001         -2.7154617294231169E-020
  -83.250000000000000          3.4814829985529319E-020
  -83.234999999999999          1.0261222027629764E-019
  -83.219999999999999          1.7572401335817189E-019
  -83.204999999999998          2.5348481997653558E-019
  -83.189999999999998          3.3507171174417208E-019
  -83.174999999999997          4.1950069269896422E-019
  -83.159999999999997          5.0562645373464989E-019
  -83.144999999999996          5.9214499631432755E-019
  -83.129999999999995          6.7760019821656828E-019
  -83.114999999999995          7.6039399819670794E-019
  -83.099999999999994          8.3880105259332575E-019
  -83.084999999999994          9.1098745028960337E-019
  -83.069999999999993          9.7503387377047635E-019
  -83.055000000000007          1.0289633613719430E-018
  -83.040000000000006          1.0707734122285889E-018
  -83.025000000000006          1.0984719686302333E-018
  -83.010000000000005          1.1101170172937548E-018
  -82.995000000000005          1.1038601197428271E-018
  -82.980000000000004          1.0779915970488797E-018
  -82.965000000000003          1.0309890232945087E-018
  -82.950000000000003          9.6156540884415824E-019
  -82.935000000000002          8.6871872778329679E-019
  -82.920000000000002          7.5178010118909870E-019
  -82.905000000000001          6.1045980905201727E-019
  -82.890000000000001          4.4489051046279070E-019
  -82.875000000000000          2.5566596600486720E-019
  -82.859999999999999          4.3873750162692086E-020
  -82.844999999999999         -1.8887836937157005E-019
  -82.829999999999998         -4.4044446636910646E-019
  -82.814999999999998         -7.0813158972226539E-019
  -82.799999999999997         -9.8870096544138375E-019
  -82.784999999999997         -1.2783807533307963E-018
  -82.769999999999996         -1.5728894148411403E-018
  -82.754999999999995         -1.8674725226066140E-018
  -82.739999999999995         -2.1569516157999059E-018
  -82.724999999999994         -2.4357848945096403E-018
  -82.709999999999994         -2.6981417693930841E-018
  -82.694999999999993         -2.9379869239058973E-018
  -82.680000000000007         -3.1491775080241078E-018
  -82.665000000000006         -3.3255681901819062E-018
  -82.650000000000006         -3.4611253081961776E-018
  -82.635000000000005         -3.5500494987923126E-018
  -82.620000000000005         -3.5868983271300186E-018
  -82.605000000000004         -3.5667171881352561E-018
  -82.590000000000003         -3.4851654515436531E-018
  -82.575000000000003         -3.3386446748954508E-018
  -82.560000000000002         -3.1244185447243237E-018
  -82.545000000000002         -2.8407255799158403E-018
  -82.530000000000001         -2.4868839768501036E-018
  -82.515000000000001         -2.0633805313176012E-018
  -82.500000000000000         -1.5719460153525236E-018
  -82.484999999999999         -1.0156116323095714E-018
  -82.469999999999999         -3.9874629169030833E-019
  -82.454999999999998          2.7292842405763048E-019
  -82.439999999999998          9.9234635040090494E-019
  -82.424999999999997          1.7511297762461838E-018
  -82.409999999999997          2.5396465194024110E-018
  -82.394999999999996          3.3470941180575268E-018
  -82.379999999999995          4.1616077003002237E-018
  -82.364999999999995          4.9703930568009909E-018
  -82.349999999999994          5.7598835983333461E-018
  -82.334999999999994          6.5159179928103816E-018
  -82.319999999999993          7.2239395158123892E-018
  -82.305000000000007          7.8692090495945926E-018
  -82.290000000000006          8.4370362800683566E-018
  -82.275000000000006          8.9130191655885202E-018
  -82.260000000000005          9.2832933319080822E-018
  -82.245000000000005          9.5347843622650294E-018
  -82.230000000000004          9.6554567787467153E-018
  -82.215000000000003          9.6345655051960760E-018
  -82.200000000000003          9.4628924408668207E-018
  -82.185000000000002          9.1329772438143334E-018
  -82.170000000000002          8.6393282619518748E-018
  -82.155000000000001          7.9786144389526937E-018
  -82.140000000000001          7.1498357134562136E-018
  -82.125000000000000          6.1544677756752290E-018
  -82.109999999999999          4.9965753911398256E-018
  -82.094999999999999          3.6828967731198602E-018
  -82.079999999999998          2.2228934202568676E-018
  -82.064999999999998          6.2876650507994632E-019
  -82.049999999999997         -1.0845646843889558E-018
  -82.034999999999997         -2.8995203370851907E-018
  -82.019999999999996         -4.7959555548645833E-018
  -82.004999999999995         -6.7512943040638770E-018
  -81.989999999999995         -8.7406992460202484E-018
  -81.974999999999994         -1.0737278325429292E-017
  -81.960000000000008         -1.2712331683757868E-017
  -81.944999999999993         -1.4635625869617164E-017
  -81.930000000000007         -1.6475708994576075E-017
  -81.915000000000006         -1.8200249877212355E-017
  -81.900000000000006         -1.9776416064652547E-017
  -81.885000000000005         -2.1171272533627242E-017
  -81.870000000000005         -2.2352210170028373E-017
  -81.855000000000004         -2.3287397409523674E-017
  -81.840000000000003         -2.3946241804338485E-017