  -90.000000000000000          0.0000000000000000     
  -89.984999999999999          0.0000000000000000     
  -89.969999999999999          0.0000000000000000     
  -89.954999999999998          0.0000000000000000     
  -89.939999999999998          0.0000000000000000     
  -89.924999999999997          0.0000000000000000     
  -89.909999999999997          0.0000000000000000     
  -89.894999999999996          0.0000000000000000     
  -89.879999999999995          0.0000000000000000     
  -89.864999999999995          0.0000000000000000     
  -89.849999999999994          0.0000000000000000     
  -89.834999999999994          0.0000000000000000     
  -89.819999999999993          0.0000000000000000     
  -89.805000000000007          0.0000000000000000     
  -89.790000000000006          0.0000000000000000     
  -89.775000000000006          0.0000000000000000     
  -89.760000000000005          0.0000000000000000     
  -89.745000000000005          0.0000000000000000     
  -89.730000000000004          0.0000000000000000     
  -89.715000000000003          0.0000000000000000     
  -89.700000000000003          0.0000000000000000     
  -89.685000000000002          0.0000000000000000     
  -89.670000000000002          0.0000000000000000     
  -89.655000000000001          0.0000000000000000     
  -89.640000000000001          0.0000000000000000     
  -89.625000000000000          0.0000000000000000     
  -89.609999999999999          0.0000000000000000     
  -89.594999999999999          0.0000000000000000     
  -89.579999999999998          0.0000000000000000     
  -89.564999999999998          0.0000000000000000     
  -89.549999999999997          0.0000000000000000     
  -89.534999999999997          0.0000000000000000     
  -89.519999999999996          0.0000000000000000     
  -89.504999999999995          0.0000000000000000     
  -89.489999999999995          0.0000000000000000     
  -89.474999999999994          0.0000000000000000     
  -89.459999999999994          0.0000000000000000     
  -89.444999999999993         -1.5654322731914900E-038
  -89.430000000000007         -9.5756587100089485E-038
  -89.415000000000006         -2.7899139444048459E-037
  -89.400000000000006         -7.5385489813621551E-037
  -89.385000000000005         -1.7856292982811966E-036
  -89.370000000000005         -3.7423542243556475E-036
  -89.355000000000004         -7.1104666049656473E-036
  -89.340000000000003         -1.2799341253350003E-035
  -89.325000000000003         -2.2439260192658124E-035
  -89.310000000000002         -3.8218756566760727E-035
  -89.295000000000002         -6.3730097776895973E-035
  -89.280000000000001         -1.0454031716185023E-034
  -89.265000000000001         -1.6916827336552735E-034
  -89.250000000000000         -2.7042816920742904E-034
  -89.234999999999999         -4.2719627434816449E-034
  -89.219999999999999         -6.6707936060272062E-034
  -89.204999999999998         -1.0297456327832975E-033
  -89.189999999999998         -1.5715150915364545E-033
  -89.174999999999997         -2.3712953665550300E-033
  -89.159999999999997         -3.5381560787125125E-033
  -89.144999999999996         -5.2208758745726324E-033
  -89.129999999999995         -7.6195852387567767E-033
  -89.114999999999995         -1.0999681775663832E-032
  -89.099999999999994         -1.5707898849903941E-032
  -89.084999999999994         -2.2190122774579105E-032
  -89.069999999999993         -3.1010034682319290E-032
  -89.055000000000007         -4.2866958202947752E-032
  -89.040000000000006         -5.8610242371547321E-032
  -89.025000000000006         -7.9246169127139414E-032
  -89.010000000000005         -1.0593140140104615E-031
  -88.995000000000005         -1.3994482414971638E-031
  -88.980000000000004         -1.8262615416225403E-031
  -88.965000000000003         -2.3526630757978863E-031
  -88.950000000000003         -2.9892938890845854E-031
  -88.935000000000002         -3.7418086970572682E-031
  -88.920000000000002         -4.6068954268330578E-031
  -88.905000000000001         -5.5666353127257597E-031
  -88.890000000000001         -6.5807187726547163E-031
  -88.875000000000000         -7.5759416608235994E-031
  -88.859999999999999         -8.4323071629117684E-031
  -88.844999999999999         -8.9649640902750151E-031
  -88.829999999999998         -8.9011206410931551E-031
  -88.814999999999998         -7.8509979349612081E-031
  -88.799999999999997         -5.2718415480423642E-031
  -88.784999999999997         -4.2399810870459221E-032
  -88.769999999999996          7.6818781521151847E-031
  -88.754999999999995          2.0347295637592319E-030
  -88.739999999999995          3.9258652515203203E-030
  -88.724999999999994          6.6570407996671655E-030
  -88.709999999999994          1.0499839037590018E-029
  -88.694999999999993          1.5792217788494921E-029
  -88.680000000000007          2.2949454944323986E-029
  -88.665000000000006          3.2475485121353825E-029
  -88.650000000000006          4.4974150551726136E-029
  -88.635000000000005          6.1159704924808461E-029
  -88.620000000000005          8.1865756924373435E-029
  -88.605000000000004          1.0805142267199144E-028
  -88.590000000000003          1.4080345026850050E-028
  -88.575000000000003          1.8133246723988029E-028
  -88.560000000000002          2.3096144301317901E-028
  -88.545000000000002          2.9110382961164460E-028
  -88.530000000000001          3.6322891898985009E-028
  -88.515000000000001          4.4881096237197528E-028
  -88.500000000000000          5.4925904232770681E-028
  -88.484999999999999          6.6582421887479431E-028
  -88.469999999999999          7.9947942367289361E-028
  -88.454999999999998          9.5076940600677463E-028
  -88.439999999999998          1.1196263731423949E-027
  -88.424999999999997          1.3051486046797925E-027
  -88.409999999999997          1.5053386223771459E-027
  -88.394999999999996          1.7168003376670201E-027
  -88.379999999999995          1.9343934435278456E-027
  -88.364999999999995          2.1508475544195604E-027
  -88.349999999999994          2.3563381165098564E-027
  -88.334999999999994          2.5380303474633482E-027
  -88.319999999999993          2.6796012206293763E-027
  -88.305000000000007          2.7607491232781658E-027
  -88.290000000000006          2.7567106407777802E-027
  -88.275000000000006          2.6378023778603512E-027
  -88.260000000000005          2.3690142022178243E-027
  -88.245000000000005          1.9096853030853128E-027
  -88.230000000000004          1.2132960945106070E-027
  -88.215000000000003          2.2741703376590166E-028
  -88.200000000000003         -1.1061401450033205E-027
  -88.185000000000002         -2.8509211632743762E-027
  -88.170000000000002         -5.0751254633457020E-027
  -88.155000000000001         -7.8505457431612265E-027
  -88.140000000000001         -1.1251097845835571E-026
  -88.125000000000000         -1.5350888088954856E-026
  -88.109999999999999         -2.0221765215024391E-026
  -88.094999999999999         -2.5930326340777133E-026
  -88.079999999999998         -3.2534321631153499E-026
  -88.064999999999998         -4.0078472720206115E-026
  -88.049999999999997         -4.8589659426982807E-026
  -88.034999999999997         -5.8071539477633953E-026
  -88.019999999999996         -6.8498579663328846E-026
  -88.004999999999995         -7.9809655589864502E-026
  -87.989999999999995         -9.1901235426406485E-026
  -87.974999999999994         -1.0462031097222103E-025
  -87.959999999999994         -1.1775728558257640E-025
  -87.944999999999993         -1.3103892988737832E-025
  -87.930000000000007         -1.4412184287382277E-025
  -87.915000000000006         -1.5658641217009038E-025
  -87.900000000000006         -1.6793184668683391E-025
  -87.885000000000005         -1.7757257743929811E-025
  -87.870000000000005         -1.8483623609125017E-025
  -87.855000000000004         -1.8896388914806090E-025
  -87.840000000000003         -1.8911262640654999E-025
  -87.825000000000003         -1.8436105832941931E-025
  -87.810000000000002         -1.7371815375258167E-025
  -87.795000000000002         -1.5613554118490164E-025
  -87.780000000000001         -1.3052381604222065E-025
  -87.765000000000001         -9.5772792185908193E-026
  -87.750000000000000         -5.0776110685319282E-026
  -87.734999999999999          5.5400226111334258E-027
  -87.719999999999999          7.4183924859159967E-026
  -87.704999999999998          1.5606164710479539E-025
  -87.689999999999998          2.5193673236339779E-025
  -87.674999999999997          3.6238702124804156E-025
  -87.659999999999997          4.8775930440823283E-025
  -87.644999999999996          6.2812280438840475E-025
  -87.629999999999995          7.8322222607810517E-025
  -87.614999999999995          9.5243200277949382E-025
  -87.599999999999994          1.1347130074651683E-024
  -87.584999999999994          1.3285730111252900E-024
  -87.569999999999993          1.5320326631410462E-024
  -87.555000000000007          1.7425984727986464E-024
  -87.540000000000006          1.9572437780199839E-024
  -87.525000000000006          2.1724010539688099E-024
  -87.510000000000005          2.3839644768486752E-024
  -87.495000000000005          2.5873054052981956E-024
  -87.480000000000004          2.7773013710293185E-024
  -87.465000000000003          2.9483792689618836E-024
  -87.450000000000003          3.0945727468544783E-024
  -87.435000000000002          3.2095934000011331E-024
  -87.420000000000002          3.2869159682090863E-024
  -87.405000000000001          3.3198753656901254E-024
  -87.390000000000001          3.3017735717132451E-024
  -87.375000000000000          3.2259963820186199E-024
  -87.359999999999999          3.0861346961817817E-024
  -87.344999999999999          2.8761085659909659E-024
  -87.329999999999998          2.5902904549635519E-024
  -87.314999999999998          2.2236245535579784E-024
  -87.299999999999997          1.7717372197004738E-024
  -87.284999999999997          1.2310359808286616E-024
  -87.269999999999996          5.9879320245132041E-025
  -87.254999999999995         -1.2678864593766066E-025
  -87.239999999999995         -9.4653250649979849E-025
  -87.224999999999994         -1.8602647682061862E-024
  -87.209999999999994         -2.8668155873122360E-024
  -87.194999999999993         -3.9640437981059518E-024
  -87.180000000000007         -5.1488801400203449E-024
  -87.165000000000006         -6.4173885915688150E-024
  -87.150000000000006         -7.7648415093463726E-024
  -87.135000000000005         -9.1857985141201611E-024
  -87.120000000000005         -1.0674186560211336E-023
  -87.105000000000004         -1.2223368960824274E-023
  -87.090000000000003         -1.3826189958687715E-023
  -87.075000000000003         -1.5474996025299204E-023
  -87.060000000000002         -1.7161605884210694E-023
  -87.045000000000002         -1.8877230047216213E-023
  -87.030000000000001         -2.0612328030528018E-023
  -87.015000000000001         -2.2356389051444944E-023
  -87.000000000000000         -2.4097632261208421E-023
  -86.984999999999999         -2.5822628091767966E-023
  -86.969999999999999         -2.7515824939238052E-023
  -86.954999999999998         -2.9159000116708073E-023
  -86.939999999999998         -3.0730631920961790E-023
  -86.924999999999997         -3.2205227522986082E-023
  -86.909999999999997         -3.3552579860998224E-023
  -86.894999999999996         -3.4737045043856710E-023
  -86.879999999999995         -3.5716816599028449E-023
  -86.864999999999995         -3.6443256518541132E-023
  -86.849999999999994         -3.6860333590018723E-023
  -86.834999999999994         -3.6904206878123495E-023
  -86.819999999999993         -3.6503017465277055E-023
  -86.805000000000007         -3.5576926316983796E-023
  -86.790000000000006         -3.4038461380629191E-023
  -86.775000000000006         -3.1793262270174323E-023
  -86.760000000000005         -2.8741203604084921E-023
  -86.745000000000005         -2.4778015325630681E-023
  -86.730000000000004         -1.9797376339727727E-023
  -86.715000000000003         -1.3693554041527475E-023
  -86.700000000000003         -6.3645648876334056E-024
  -86.685000000000002          2.2841311710645616E-024
  -86.670000000000002          1.2335438485324497E-023
  -86.655000000000001          2.3855985233277500E-023
  -86.640000000000001          3.6891102320765963E-023
  -86.625000000000000          5.1459523616567076E-023
  -86.609999999999999          6.7547937881766139E-023
  -86.594999999999999          8.5105514075074330E-023
  -86.579999999999998          1.0403861125159830E-022
  -86.564999999999998          1.2420583398268622E-022
  -86.549999999999997          1.4541367153284377E-022
  -86.534999999999997          1.6741291958666801E-022
  -86.519999999999996          1.8989614958306344E-022
  -86.504999999999995          2.1249638342892125E-022
  -86.489999999999995          2.3478734593460897E-022
  -86.474999999999994          2.5628530759304508E-022
  -86.459999999999994          2.7645298470801442E-022
  -86.444999999999993          2.9470528230155817E-022
  -86.430000000000007          3.1041729631899645E-022
  -86.415000000000006          3.2293458775335793E-022
  -86.400000000000006          3.3158557722792260E-022
  -86.385000000000005          3.3569613576752480E-022
  -86.370000000000005          3.3460616981022455E-022
  -86.355000000000004          3.2768797326740663E-022
  -86.340000000000003          3.1436611944036662E-022
  -86.325000000000003          2.9413833743530669E-022
  -86.310000000000002          2.6659714588480035E-022
  -86.295000000000002          2.3145141093861036E-022
  -86.280000000000001          1.8854750035772311E-022
  -86.265000000000001          1.3788921329625815E-022
  -86.250000000000000          7.9655804195430668E-023
  -86.234999999999999          1.4217401858804919E-023
  -86.219999999999999         -5.7852868911036112E-023
  -86.204999999999998         -1.3577085039758834E-022
  -86.189999999999998         -2.1853802297740655E-022
  -86.174999999999997         -3.0494338418678061E-022
  -86.159999999999997         -3.9357118744721573E-022
  -86.144999999999996         -4.8281473135405567E-022
  -86.129999999999995         -5.7089659238097991E-022
  -86.114999999999995         -6.5589530731126180E-022
  -86.099999999999994         -7.3577811412077887E-022
  -86.084999999999994         -8.0844015520955868E-022
  -86.069999999999993         -8.7174860312537330E-022
  -86.055000000000007         -9.2359188548422505E-022
  -86.040000000000006         -9.6193229252639392E-022
  -86.025000000000006         -9.8486181584675271E-022
  -86.010000000000005         -9.9065884540574708E-022
  -85.995000000000005         -9.7784521995006114E-022
  -85.980000000000004         -9.4524085405258219E-022
  -85.965000000000003         -8.9201634566844811E-022
  -85.950000000000003         -8.1773972718773434E-022
  -85.935000000000002         -7.2241700657509506E-022
  -85.920000000000002         -6.0652503447051826E-022
  -85.905000000000001         -4.7103452630598374E-022
  -85.890000000000001         -3.1742283554124045E-022
  -85.875000000000000         -1.4767512748883343E-022
  -85.859999999999999          3.5726592163365947E-023
  -85.844999999999999          2.2982681185773648E-022
  -85.829999999999998          4.3123221485603378E-022
  -85.814999999999998          6.3615919390943354E-022
  -85.799999999999997          8.4049259615242156E-022
  -85.784999999999997          1.0398536755811695E-021
  -85.769999999999996          1.2296767829552967E-021
  -85.754999999999995          1.4052919122029927E-021
  -85.739999999999995          1.5620109323842888E-021
  -85.724999999999994          1.6952155867027570E-021
  -85.709999999999994          1.8004444312881528E-021
  -85.694999999999993          1.8734754320886353E-021
  -85.680000000000007          1.9104039169499779E-021
  -85.665000000000006          1.9077103293009954E-021
  -85.650000000000006          1.8623187931871480E-021
  -85.635000000000005          1.7716431575038571E-021
  -85.620000000000005          1.6336208223521211E-021
  -85.605000000000004          1.4467326309551016E-021
  -85.590000000000003          1.2100099378518341E-021
  -85.575000000000003          9.2303107480037257E-022
  -85.560000000000002          5.8590600270001767E-022
  -85.545000000000002          1.9925505652308620E-022
  -85.530000000000001         -2.3581660115664341E-022
  -85.515000000000001         -7.1774462760968170E-022
  -85.500000000000000         -1.2445265530706667E-021
  -85.484999999999999         -1.8137336452063784E-021
  -85.469999999999999         -2.4225086876834297E-021
  -85.454999999999998         -3.0675451794839177E-021
  -85.439999999999998         -3.7450428557721435E-021
  -85.424999999999997         -4.4506364001123290E-021
  -85.409999999999997         -5.1792960858598831E-021
  -85.394999999999996         -5.9251957019132055E-021
  -85.379999999999995         -6.6815497823099472E-021
  -85.364999999999995         -7.4404241786355613E-021
  -85.349999999999994         -8.1925228025216297E-021
  -85.334999999999994         -8.9269501343371805E-021
  -85.319999999999993         -9.6309745396735729E-021
  -85.305000000000007         -1.0289784315687279E-020
  -85.290000000000006         -1.0886261508901140E-020
  -85.275000000000006         -1.1400790468128997E-020
  -85.260000000000005         -1.1811107594872245E-020
  -85.245000000000005         -1.2092222179550264E-020
  -85.230000000000004         -1.2216419632674693E-020
  -85.215000000000003         -1.2153373768155234E-020
  -85.200000000000003         -1.1870379447846931E-020
  -85.185000000000002         -1.1332732244526636E-020
  -85.170000000000002         -1.0504263201234329E-020
  -85.155000000000001         -9.3480464584377595E-021
  -85.140000000000001         -7.8272821724011207E-021
  -85.125000000000000         -5.9063664377644704E-021
  -85.109999999999999         -3.5521389247078789E-021
  -85.094999999999999         -7.3529843620330656E-022
  -85.079999999999998          2.5680258325234895E-021
  -85.064999999999998          6.3745765138636263E-021
  -85.049999999999997          1.0692174564158082E-020
  -85.034999999999997          1.5517871132990720E-020
  -85.019999999999996          2.0836099634429700E-020
  -85.004999999999995          2.6616877194650676E-020
  -84.989999999999995          3.2814128884182164E-020
  -84.974999999999994          3.9364200569948795E-020
  -84.959999999999994          4.6184618144352483E-020
  -84.944999999999993          5.3173202183523056E-020
  -84.930000000000007          6.0207594580288020E-020
  -84.915000000000006          6.7145261775346832E-020
  -84.900000000000006          7.3824073137464831E-020
  -84.885000000000005          8.0063464186209641E-020
  -84.870000000000005          8.5666313904200754E-020
  -84.855000000000004          9.0421516751826687E-020
  -84.840000000000003          9.4107239690906912E-020
  -84.825000000000003          9.6494987001920724E-020
  -84.810000000000002          9.7354304873741144E-020
  -84.795000000000002          9.6458229163450399E-020
  -84.780000000000001          9.3589288918129469E-020
  -84.765000000000001          8.8546065658621693E-020
  -84.750000000000000          8.1150114554814361E-020
  -84.734999999999999          7.1253221643044164E-020
  -84.719999999999999          5.8744667505851170E-020
  -84.704999999999998          4.3558513569952688E-020
  -84.689999999999998          2.5680513588002050E-020
  -84.674999999999997          5.1545848728534284E-021
  -84.659999999999997         -1.7911463638254956E-020
  -84.644999999999996         -4.3341146014610237E-020
  -84.629999999999995         -7.0885701419477732E-020
  -84.614999999999995         -1.0022186863882400E-019
  -84.599999999999994         -1.3095127296599952E-019
  -84.584999999999994         -1.6260156842184238E-019
  -84.569999999999993         -1.9462947182731569E-019
  -84.555000000000007         -2.2642588098354780E-019
  -84.540000000000006         -2.5732298971756991E-019
  -84.525000000000006         -2.8660363243829855E-019
  -84.510000000000005         -3.1351256739707867E-019
  -84.495000000000005         -3.3726978912566690E-019
  -84.480000000000004         -3.5708565033180480E-019
  -84.465000000000003         -3.7217763815601722E-019
  -84.450000000000003         -3.8178831365114700E-019
  -84.435000000000002         -3.8520444033402029E-019
  -84.420000000000002         -3.8177657802620640E-019
  -84.405000000000001         -3.7093888348993077E-019
  -84.390000000000001         -3.5222870426883485E-019
  -84.375000000000000         -3.2530531949872919E-019
  -84.359999999999999         -2.8996728485106301E-019
  -84.344999999999999         -2.4616822651274505E-019
  -84.329999999999998         -1.9403007607594445E-019
  -84.314999999999998         -1.3385369463908324E-019
  -84.299999999999997         -6.6126162335984431E-020
  -84.284999999999997          8.4754638084545142E-021
  -84.269999999999996          8.9084372829286183E-020
  -84.254999999999995          1.7464834251972911E-019
  -84.239999999999995          2.6393844421464518E-019
  -84.224999999999994          3.5556198364348212E-019
  -84.209999999999994          4.4798003005067626E-019
  -84.194999999999993          5.3952860623650059E-019
  -84.180000000000007          6.2844426653256863E-019
  -84.165000000000006          7.1289268623175576E-019
  -84.150000000000006          7.9100055974057080E-019
  -84.135000000000005          8.6088961838184724E-019
  -84.120000000000005          9.2071271614896588E-019
  -84.105000000000004          9.6869063924311345E-019
  -84.090000000000003          1.0031490190081178E-018
  -84.075000000000003          1.0225551931664946E-018
  -84.060000000000002          1.0255528957063868E-018
  -84.045000000000002          1.0109955509012192E-018
  -84.030000000000001          9.7797636200448060E-019
  -84.015000000000001          9.2585405724628922E-019
  -84.000000000000000          8.5427568899902636E-019
  -83.984999999999999          7.6319343588352880E-019
  -83.969999999999999          6.5287716557464197E-019
  -83.954999999999998          5.2392100054733207E-019
  -83.939999999999998          3.7724466224518150E-019
  -83.924999999999997          2.1408945149959973E-019
  -83.909999999999997          3.6008803807438526E-020
  -83.894999999999996         -1.5514617663620487E-019
  -83.879999999999995         -3.5724547713578653E-019
  -83.864999999999995         -5.6790296919860082E-019
  -83.849999999999994         -7.8450259073987220E-019
  -83.834999999999994         -1.0042268353462744E-018
  -83.819999999999993         -1.2240874096573829E-018
  -83.805000000000007         -1.4409566920783466E-018
  -83.790000000000006         -1.6515996826310471E-018
  -83.775000000000006         -1.8527056943113174E-018
  -83.760000000000005         -2.0409192689643362E-018
  -83.745000000000005         -2.2128694387987969E-018
  -83.730000000000004         -2.3651988845034997E-018
  -83.715000000000003         -2.4945895778463413E-018
  -83.700000000000003         -2.5977888378636102E-018
  -83.685000000000002         -2.6716329055074441E-018
  -83.670000000000002         -2.7130715522690537E-018
  -83.655000000000001         -2.7191912412358742E-018
  -83.640000000000001         -2.6872399425099415E-018
  -83.625000000000000         -2.6146542233729539E-018
  -83.609999999999999         -2.4990896471737830E-018
  -83.594999999999999         -2.3384536537578226E-018
  -83.579999999999998         -2.1309458845218513E-018
  -83.564999999999998         -1.8751026433719563E-018
  -83.549999999999997         -1.5698495260900079E-018
  -83.534999999999997         -1.2145610807353394E-018
  -83.519999999999996         -8.0912739568405785E-019
  -83.504999999999995         -3.5402919211902722E-019
  -83.489999999999995          1.4958144831222508E-019
  -83.474999999999994          6.9979433293076685E-019
  -83.459999999999994          1.2938506851467630E-018
  -83.444999999999993          1.9280513015620882E-018
  -83.430000000000007          2.5976664151329524E-018
  -83.415000000000006          3.2968490996995245E-018
  -83.400000000000006          4.0185592210683659E-018
  -83.385000000000005          4.7544993305149569E-018
  -83.370000000000005          5.4950683426693947E-018
  -83.355000000000004          6.2293392016398538E-018
  -83.340000000000003          6.9450613625544238E-018
  -83.325000000000003          7.6287021505917371E-018
  -83.310000000000002          8.2655170713330361E-018
  -83.295000000000002          8.8396697519509930E-018
  -83.280000000000001          9.3343932414291580E-018
  -83.265000000000001          9.7321984600763224E-018
  -83.250000000000000          1.0015138070141923E-017
  -83.234999999999999          1.0165113359823300E-017
  -83.219999999999999          1.0164234066832156E-017
  -83.204999999999998          9.9952278327977718E-018
  -83.189999999999998          9.6418843992559452E-018
  -83.174999999999997          9.0895428170297865E-018
  -83.159999999999997          8.3256059525707257E-018
  -83.144999999999996          7.3400682291893213E-018
  -83.129999999999995          6.1260582575370953E-018
  -83.114999999999995          4.6803707127404048E-018
  -83.099999999999994          3.0039785659947653E-018
  -83.084999999999994          1.1025122289346720E-018
  -83.069999999999993         -1.0133159993145836E-018
  -83.055000000000007         -3.3273559342807865E-018
  -83.040000000000006         -5.8177473637232681E-018
  -83.025000000000006         -8.4567521299685580E-018
  -83.010000000000005         -1.1210700259772992E-017
  -82.995000000000005         -1.4040070717830010E-017
  -82.980000000000004         -1.6899713504764632E-017
  -82.965000000000003         -1.9739219406867263E-017
  -82.950000000000003         -2.2503458490672469E-017
  -82.935000000000002         -2.5133272453131682E-017
  -82.920000000000002         -2.7566328272005357E-017
  -82.905000000000001         -2.9738129020571508E-017
  -82.890000000000001         -3.1583165303038387E-017
  -82.875000000000000         -3.3036220545551087E-017
  -82.859999999999999         -3.4033747424730835E-017
  -82.844999999999999         -3.4515378299473511E-017
  -82.829999999999998         -3.4425473693056348E-017
  -82.814999999999998         -3.3714720406081384E-017
  -82.799999999999997         -3.2341699850916864E-017
  -82.784999999999997         -3.0274449768693740E-017
  -82.769999999999996         -2.7491926684628662E-017
  -82.754999999999995         -2.3985360829867343E-017
  -82.739999999999995         -1.9759442318482959E-017
  -82.724999999999994         -1.4833325344739788E-017
  -82.709999999999994         -9.2413784359087952E-018
  -82.694999999999993         -3.0336853101285353E-018
  -82.680000000000007          3.7237739710406995E-018
  -82.665000000000006          1.0949253283563356E-017
  -82.650000000000006          1.8545721860045127E-017
  -82.635000000000005          2.6401710909089897E-017
  -82.620000000000005          3.4392498965117534E-017
  -82.605000000000004          4.2381687253840493E-017
  -82.590000000000003          5.0223101380492079E-017
  -82.575000000000003          5.7763021408757887E-017
  -82.560000000000002          6.4842727922701242E-017
  -82.545000000000002          7.1301281353621377E-017
  -82.530000000000001          7.6978519682593325E-017
  -82.515000000000001          8.1718251357632373E-017
  -82.500000000000000          8.5371497841695270E-017
  -82.484999999999999          8.7799815570020241E-017
  -82.469999999999999          8.8878545115573095E-017
  -82.454999999999998          8.8499994180044327E-017
  -82.439999999999998          8.6576441913833915E-017
  -82.424999999999997          8.3042865303350290E-017
  -82.409999999999997          7.7859367773288794E-017
  -82.394999999999996          7.1013276916665114E-017
  -82.379999999999995          6.2520719446701586E-017
  -82.364999999999995          5.2427799102019464E-017
  -82.349999999999994          4.0811202142847314E-017
  -82.334999999999994          2.7778246981857767E-017
  -82.319999999999993          1.3466390357341821E-017
  -82.305000000000007         -1.9578717830300842E-018
  -82.290000000000006         -1.8300658023047717E-017
  -82.275000000000006         -3.5342929488940962E-017
  -82.260000000000005         -5.2843212514366045E-017
  -82.245000000000005         -7.0540844290334028E-017
  -82.230000000000004         -8.8159612666701206E-017
  -82.215000000000003         -1.0541176797813998E-016
  -82.200000000000003         -1.2200233761821395E-016
  -82.185000000000002         -1.3763366891530202E-016
  -82.170000000000002         -1.5201005472658384E-016
  -82.155000000000001         -1.6484248476347828E-016
  -82.140000000000001         -1.7585333074263295E-016
  -82.125000000000000         -1.8478089918801566E-016
  -82.109999999999999         -1.9138382541432835E-016
  -82.094999999999999         -1.9544518957773511E-016
  -82.079999999999998         -1.9677630185434524E-016
  -82.064999999999998         -1.9522013027667168E-016
  -82.049999999999997         -1.9065426534894638E-016
  -82.034999999999997         -1.8299348761574168E-016
  -82.019999999999996         -1.7219177936522002E-016
  -82.004999999999995         -1.5824389958102027E-016
  -81.989999999999995         -1.4118645596833157E-016
  -81.974999999999994         -1.2109854022860381E-016
  -81.960000000000008         -9.8101820703776167E-017
  -81.944999999999993         -7.2360277678481166E-017
  -81.930000000000007         -4.4079515165774985E-017
  -81.915000000000006         -1.3505715350843204E-017
  -81.900000000000006          1.9075734528816029E-017
  -81.885000000000005          5.3341919705674265E-017
  -81.870000000000005          8.8934316941193870E-017
  -81.855000000000004          1.2546098490009007E-016
  -81.840000000000003          1.6249894312177264E-016