  -90.000000000000000          0.0000000000000000     
  -89.984999999999999          0.0000000000000000     
  -89.969999999999999          0.0000000000000000     
  -89.954999999999998          0.0000000000000000     
  -89.939999999999998          0.0000000000000000     
  -89.924999999999997          0.0000000000000000     
  -89.909999999999997          0.0000000000000000     
  -89.894999999999996          0.0000000000000000     
  -89.879999999999995          0.0000000000000000     
  -89.864999999999995         -6.0597924552271966E-038
  -89.849999999999994         -1.6404007881499120E-036
  -89.834999999999994         -1.6806323405941377E-035
  -89.819999999999993         -1.1665867668724432E-034
  -89.805000000000007         -6.3427117551802634E-034
  -89.790000000000006         -2.8834325412693765E-033
  -89.775000000000006         -1.1390926703235799E-032
  -89.760000000000005         -4.0142550210877461E-032
  -89.745000000000005         -1.2860796871725047E-031
  -89.730000000000004         -3.7994760989199079E-031
  -89.715000000000003         -1.0465405516670251E-030
  -89.700000000000003         -2.7111998554258077E-030
  -89.685000000000002         -6.6529384184223437E-030
  -89.670000000000002         -1.5553971226577605E-029
  -89.655000000000001         -3.4814123797230017E-029
  -89.640000000000001         -7.4909683151235617E-029
  -89.625000000000000         -1.5549214480541523E-028
  -89.609999999999999         -3.1230177013753715E-028
  -89.594999999999999         -6.0851278077570783E-028
  -89.579999999999998         -1.1528792869691905E-027
  -89.564999999999998         -2.1280701587462758E-027
  -89.549999999999997         -3.8339217772724490E-027
  -89.534999999999997         -6.7520600141288786E-027
  -89.519999999999996         -1.1640488524967604E-026
  -89.504999999999995         -1.9669340714240090E-026
  -89.489999999999995         -3.2612039837757323E-026
  -89.474999999999994         -5.3109542754035569E-026
  -89.459999999999994         -8.5029024346767064E-026
  -89.444999999999993         -1.3394215988572124E-025
  -89.430000000000007         -2.0775144977061109E-025
  -89.415000000000006         -3.1749585605650178E-025
  -89.400000000000006         -4.7836791533157668E-025
  -89.385000000000005         -7.1097375912395331E-025
  -89.370000000000005         -1.0428624810038256E-024
  -89.355000000000004         -1.5103421436910893E-024
  -89.340000000000003         -2.1605849036847306E-024
  -89.325000000000003         -3.0540000527771512E-024
  -89.310000000000002         -4.2668204464433544E-024
  -89.295000000000002         -5.8938046482641672E-024
  -89.280000000000001         -8.0508990396585211E-024
  -89.265000000000001         -1.0877630632224215E-023
  -89.250000000000000         -1.4538916320224036E-023
  -89.234999999999999         -1.9225870279722260E-023
  -89.219999999999999         -2.5155057706168306E-023
  -89.204999999999998         -3.2565531852836727E-023
  -89.189999999999998         -4.1712812655537661E-023
  -89.174999999999997         -5.2858871354564145E-023
  -89.159999999999997         -6.6256919678717639E-023
  -89.144999999999996         -8.2129823455497563E-023
  -89.129999999999995         -1.0064065285578758E-022
  -89.114999999999995         -1.2185393039074754E-022
  -89.099999999999994         -1.4568611253507090E-022
  -89.084999999999994         -1.7184362943604510E-022
  -89.069999999999993         -1.9974741932391447E-022
  -89.055000000000007         -2.2844255660657810E-022
  -89.040000000000006         -2.5649235518167301E-022
  -89.025000000000006         -2.8185682074829767E-022
  -89.010000000000005         -3.0175588125870838E-022
  -88.995000000000005         -3.1251882177050523E-022
  -88.980000000000004         -3.0942254902840000E-022
  -88.965000000000003         -2.8652261114743062E-022
  -88.950000000000003         -2.3648237451710098E-022
  -88.935000000000002         -1.5040750185080383E-022
  -88.920000000000002         -1.7695112514411664E-023
  -88.905000000000001          1.7409175679818015E-022
  -88.890000000000001          4.3931060490937834E-022
  -88.875000000000000          7.9427216286469137E-022
  -88.859999999999999          1.2572018438780131E-021
  -88.844999999999999          1.8481117238284797E-021
  -88.829999999999998          2.5885621664275740E-021
  -88.814999999999998          3.5012939742235769E-021
  -88.799999999999997          4.6097075132121810E-021
  -88.784999999999997          5.9371740688206690E-021
  -88.769999999999996          7.5061559567651169E-021
  -88.754999999999995          9.3371242816190784E-021
  -88.739999999999995          1.1447262024241852E-020
  -88.724999999999994          1.3848951852221158E-020
  -88.709999999999994          1.6548045422155955E-020
  -88.694999999999993          1.9541935176412141E-020
  -88.680000000000007          2.2817441155151419E-020
  -88.665000000000006          2.6348549174343850E-020
  -88.650000000000006          3.0094064993249441E-020
  -88.635000000000005          3.3995203858414373E-020
  -88.620000000000005          3.7973251133501130E-020
  -88.605000000000004          4.1927313401998117E-020
  -88.590000000000003          4.5732337757393509E-020
  -88.575000000000003          4.9237438054904537E-020
  -88.560000000000002          5.2264712301695480E-020
  -88.545000000000002          5.4608673970206534E-020
  -88.530000000000001          5.6036400632170131E-020
  -88.515000000000001          5.6288574396725164E-020
  -88.500000000000000          5.5081536937251301E-020
  -88.484999999999999          5.2110456042151411E-020
  -88.469999999999999          4.7053762017121238E-020
  -88.454999999999998          3.9578853938906306E-020
  -88.439999999999998          2.9349188851645439E-020
  -88.424999999999997          1.6032721594058222E-020
  -88.409999999999997         -6.8829928991704013E-022
  -88.394999999999996         -2.1106322738444581E-020
  -88.379999999999995         -4.5476364131899560E-020
  -88.364999999999995         -7.4002996181369173E-020
  -88.349999999999994         -1.0682668611020971E-019
  -88.334999999999994         -1.4400981820000931E-019
  -88.319999999999993         -1.8552283366856627E-019
  -88.305000000000007         -2.3123074051732106E-019
  -88.290000000000006         -2.8088078337035043E-019
  -88.275000000000006         -3.3409147686890260E-019
  -88.260000000000005         -3.9034361008223568E-019
  -88.245000000000005         -4.4897399095423529E-019
  -88.230000000000004         -5.0917195663520531E-019
  -88.215000000000003         -5.6997965782520348E-019
  -88.200000000000003         -6.3029622052649829E-019
  -88.185000000000002         -6.8888630219303008E-019
  -88.170000000000002         -7.4439270623475246E-019
  -88.155000000000001         -7.9535426979837880E-019
  -88.140000000000001         -8.4022778405361486E-019
  -88.125000000000000         -8.7741446397276049E-019
  -88.109999999999999         -9.0529045061579753E-019
  -88.094999999999999         -9.2224072553550446E-019
  -88.079999999999998         -9.2669509313410251E-019
  -88.064999999999998         -9.1716679965810419E-019
  -88.049999999999997         -8.9229130728952670E-019
  -88.034999999999997         -8.5086403426133969E-019
  -88.019999999999996         -7.9187700929835901E-019
  -88.004999999999995         -7.1455149355265429E-019
  -87.989999999999995         -6.1836615644316396E-019
  -87.974999999999994         -5.0307915103829284E-019
  -87.959999999999994         -3.6874256386723763E-019
  -87.944999999999993         -2.1570855415109571E-019
  -87.930000000000007         -4.4625789817647767E-020
  -87.915000000000006          1.4357379061961730E-019
  -87.900000000000006          3.4769875304176476E-019
  -87.885000000000005          5.6633204981778605E-019
  -87.870000000000005          7.9787417213694503E-019
  -87.855000000000004          1.0405952785432402E-018
  -87.840000000000003          1.2926934594698013E-018
  -87.825000000000003          1.5523582750496913E-018
  -87.810000000000002          1.8178363091794508E-018
  -87.795000000000002          2.0874961548959721E-018
  -87.780000000000001          2.3598896257418281E-018
  -87.765000000000001          2.6338044885293222E-018
  -87.750000000000000          2.9083068563468821E-018
  -87.734999999999999          3.1827678651338143E-018
  -87.719999999999999          3.4568721522815831E-018
  -87.704999999999998          3.7306052421294686E-018
  -87.689999999999998          4.0042150820660838E-018
  -87.674999999999997          4.2781491768028198E-018
  -87.659999999999997          4.5529617373500871E-018
  -87.644999999999996          4.8291962213703330E-018
  -87.629999999999995          5.1072380950290073E-018
  -87.614999999999995          5.3871477425108263E-018
  -87.599999999999994          5.6684706280691922E-018
  -87.584999999999994          5.9500325688245859E-018
  -87.569999999999993          6.2297292172986725E-018
  -87.555000000000007          6.5043147167677940E-018
  -87.540000000000006          6.7691998691935061E-018
  -87.525000000000006          7.0182709826684295E-018
  -87.510000000000005          7.2437389109544584E-018
  -87.495000000000005          7.4360335879546608E-018
  -87.480000000000004          7.5837490202025428E-018
  -87.465000000000003          7.6736594168839941E-018
  -87.450000000000003          7.6908060438016059E-018
  -87.435000000000002          7.6186717584839191E-018
  -87.420000000000002          7.4394473623426671E-018
  -87.405000000000001          7.1343947329616863E-018
  -87.390000000000001          6.6843067365174952E-018
  -87.375000000000000          6.0700622659703181E-018
  -87.359999999999999          5.2732739234837138E-018
  -87.344999999999999          4.2770118034605594E-018
  -87.329999999999998          3.0665967587504889E-018
  -87.314999999999998          1.6304376108273733E-018
  -87.299999999999997         -3.9105519220418442E-020
  -87.284999999999997         -1.9448616795606971E-018
  -87.269999999999996         -4.0840214675651999E-018
  -87.254999999999995         -6.4473769800736252E-018
  -87.239999999999995         -9.0186625375207301E-018
  -87.224999999999994         -1.1774032590798142E-017
  -87.209999999999994         -1.4681713064626169E-017
  -87.194999999999993         -1.7701858668898130E-017
  -87.180000000000007         -2.0786656709847235E-017
  -87.165000000000006         -2.3880689395154883E-017
  -87.150000000000006         -2.6921593924079475E-017
  -87.135000000000005         -2.9841020362605754E-017
  -87.120000000000005         -3.2565898884143237E-017
  -87.105000000000004         -3.5020011412690061E-017
  -87.090000000000003         -3.7125874285907161E-017
  -87.075000000000003         -3.8806847565680272E-017
  -87.060000000000002         -3.9989514009561639E-017
  -87.045000000000002         -4.0606210243444423E-017
  -87.030000000000001         -4.0597673739522876E-017
  -87.015000000000001         -3.9915752659979060E-017
  -87.000000000000000         -3.8526066069832822E-017
  -86.984999999999999         -3.6410525183448852E-017
  -86.969999999999999         -3.3569652778974284E-017
  -86.954999999999998         -3.0024571740531271E-017
  -86.939999999999998         -2.5818566775213489E-017
  -86.924999999999997         -2.1018141549908975E-017
  -86.909999999999997         -1.5713457097024785E-017
  -86.894999999999996         -1.0018093586470575E-017
  -86.879999999999995         -4.0680572953332328E-018
  -86.864999999999995          1.9800075498123095E-018
  -86.849999999999994          7.9514382471078766E-018
  -86.834999999999994          1.3656995931531190E-017
  -86.819999999999993          1.8897121419147454E-017
  -86.805000000000007          2.3466943578923209E-017
  -86.790000000000006          2.7161964338281259E-017
  -86.775000000000006          2.9784318785976469E-017
  -86.760000000000005          3.1149457964264584E-017
  -86.745000000000005          3.1093103803492571E-017
  -86.730000000000004          2.9478291737833901E-017
  -86.715000000000003          2.6202261119791111E-017
  -86.700000000000003          2.1203036269149278E-017
  -86.685000000000002          1.4465388790831301E-017
  -86.670000000000002          6.0260041450039062E-018
  -86.655000000000001         -4.0224027157845935E-018
  -86.640000000000001         -1.5528233159900686E-017
  -86.625000000000000         -2.8279614386015958E-017
  -86.609999999999999         -4.2004625243414321E-017
  -86.594999999999999         -5.6373291805219796E-017
  -86.579999999999998         -7.1001431690293355E-017
  -86.564999999999998         -8.5456386424877912E-017
  -86.549999999999997         -9.9264585182119508E-017
  -86.534999999999997         -1.1192095147999326E-016
  -86.519999999999996         -1.2289996754917689E-016
  -86.504999999999995         -1.3166813498179819E-016
  -86.489999999999995         -1.3769769931215852E-016
  -86.474999999999994         -1.4048115545595456E-016
  -86.459999999999994         -1.3954645459865944E-016
  -86.444999999999993         -1.3447209196989574E-016
  -86.430000000000007         -1.2490204903402064E-016
  -86.415000000000006         -1.1055982247331481E-016
  -86.400000000000006         -9.1261235561309641E-017
  -86.385000000000005         -6.6925568705109766E-017
  -86.370000000000005         -3.7584456600061659E-017
  -86.355000000000004         -3.3883218337629354E-018
  -86.340000000000003          3.5390151575750390E-017
  -86.325000000000003          7.8355649671041008E-017
  -86.310000000000002          1.2499323742474848E-016
  -86.295000000000002          1.7467477704075719E-016
  -86.280000000000001          2.2666876954232935E-016
  -86.265000000000001          2.8015352679617927E-016
  -86.250000000000000          3.3423327175591613E-016
  -86.234999999999999          3.8795710405912858E-016
  -86.219999999999999          4.4033997732771907E-016
  -86.204999999999998          4.9038554258770011E-016
  -86.189999999999998          5.3710983872193785E-016
  -86.174999999999997          5.7956540643936912E-016
  -86.159999999999997          6.1686476696950826E-016
  -86.144999999999996          6.4820270961687162E-016
  -86.129999999999995          6.7287635585391577E-016
  -86.114999999999995          6.9030268231513371E-016
  -86.099999999999994          7.0003223214288863E-016
  -86.084999999999994          7.0175853822895210E-016
  -86.069999999999993          6.9532336423086516E-016
  -86.055000000000007          6.8071628105546476E-016
  -86.040000000000006          6.5806984935899617E-016
  -86.025000000000006          6.2764866105835797E-016
  -86.010000000000005          5.8983414567761062E-016
  -85.995000000000005          5.4510445331547915E-016
  -85.980000000000004          4.9401047302503409E-016
  -85.965000000000003          4.3714862188026088E-016
  -85.950000000000003          3.7513151646026118E-016
  -85.935000000000002          3.0855771789116816E-016
  -85.920000000000002          2.3798171511607818E-016
  -85.905000000000001          1.6388564193554634E-016
  -85.890000000000001          8.6654018220401588E-017
  -85.875000000000000          6.5531121690538285E-018
  -85.859999999999999         -7.6283879873950894E-017
  -85.844999999999999         -1.6186454191405877E-016
  -85.829999999999998         -2.5033674944296622E-016
  -85.814999999999998         -3.4197936158877711E-016
  -85.799999999999997         -4.3718316494264109E-016
  -85.784999999999997         -5.3642236560612257E-016
  -85.769999999999996         -6.4021651241324366E-016
  -85.754999999999995         -7.4908348660191154E-016
  -85.739999999999995         -8.6348460349102460E-016
  -85.724999999999994         -9.8376322906157604E-016
  -85.709999999999994         -1.1100790290241233E-015
  -85.694999999999993         -1.2423395179687381E-015
  -85.680000000000007         -1.3801321908501075E-015
  -85.665000000000006         -1.5226592485110364E-015
  -85.650000000000006         -1.6686792582882052E-015
  -85.635000000000005         -1.8164570731891636E-015
  -85.620000000000005         -1.9637270918382429E-015
  -85.605000000000004         -2.1076718708946387E-015
  -85.590000000000003         -2.2449187369206211E-015
  -85.575000000000003         -2.3715584211063748E-015
  -85.560000000000002         -2.4831848698185196E-015
  -85.545000000000002         -2.5749608896535230E-015
  -85.530000000000001         -2.6417087799630564E-015
  -85.515000000000001         -2.6780253175765845E-015
  -85.500000000000000         -2.6784219407541363E-015
  -85.484999999999999         -2.6374858972045201E-015
  -85.469999999999999         -2.5500627796854565E-015
  -85.454999999999998         -2.4114530376473419E-015
  -85.439999999999998         -2.2176203473382727E-015
  -85.424999999999997         -1.9654067581726482E-015
  -85.409999999999997         -1.6527448744844573E-015
  -85.394999999999996         -1.2788649550828828E-015
  -85.379999999999995         -8.4448512508851861E-016
  -85.364999999999995         -3.5198059723436385E-016
  -85.349999999999994          1.9447807647531771E-016
  -85.334999999999994          7.8882394314647836E-016
  -85.319999999999993          1.4230372683647348E-015
  -85.305000000000007          2.0871397922531945E-015
  -85.290000000000006          2.7692454720399523E-015
  -85.275000000000006          3.4556714433741807E-015
  -85.260000000000005          4.1311109738660472E-015
  -85.245000000000005          4.7788722204987217E-015
  -85.230000000000004          5.3811782910499414E-015
  -85.215000000000003          5.9195291389187252E-015
  -85.200000000000003          6.3751163975112914E-015
  -85.185000000000002          6.7292900953949946E-015
  -85.170000000000002          6.9640626409019427E-015
  -85.155000000000001          7.0626441469516608E-015
  -85.140000000000001          7.0099904613679653E-015
  -85.125000000000000          6.7933571264264681E-015
  -85.109999999999999          6.4028406329078719E-015
  -85.094999999999999          5.8318874868992700E-015
  -85.079999999999998          5.0777617719810313E-015
  -85.064999999999998          4.1419487604261659E-015
  -85.049999999999997          3.0304822914344401E-015
  -85.034999999999997          1.7541789757422911E-015
  -85.019999999999996          3.2876646817477768E-016
  -85.004999999999995         -1.2251055738656653E-015
  -84.989999999999995         -2.8819800516053425E-015
  -84.974999999999994         -4.6118411349484363E-015
  -84.959999999999994         -6.3804954802428298E-015
  -84.944999999999993         -8.1500900321086756E-015
  -84.930000000000007         -9.8797575684233217E-015
  -84.915000000000006         -1.1526385382720945E-014
  -84.900000000000006         -1.3045494080875328E-014
  -84.885000000000005         -1.4392204469209149E-014
  -84.870000000000005         -1.5522283640183841E-014
  -84.855000000000004         -1.6393238491934498E-014
  -84.840000000000003         -1.6965439740990879E-014
  -84.825000000000003         -1.7203237464668945E-014
  -84.810000000000002         -1.7076045303243345E-014
  -84.795000000000002         -1.6559368757945378E-014
  -84.780000000000001         -1.5635743703468555E-014
  -84.765000000000001         -1.4295547845532067E-014
  -84.750000000000000         -1.2537673265040905E-014
  -84.734999999999999         -1.0370020238294111E-014
  -84.719999999999999         -7.8098080980764165E-015
  -84.704999999999998         -4.8836705248648127E-015
  -84.689999999999998         -1.6275293389194073E-015
  -84.674999999999997          1.9137546890490810E-015
  -84.659999999999997          5.6869618436899538E-015
  -84.644999999999996          9.6313168757630047E-015
  -84.629999999999995          1.3679500782994014E-014
  -84.614999999999995          1.7758857196749876E-014
  -84.599999999999994          2.1792771986951440E-014
  -84.584999999999994          2.5702184792367883E-014
  -84.569999999999993          2.9407211935743652E-014
  -84.555000000000007          3.2828845571890655E-014
  -84.540000000000006          3.5890659612044032E-014
  -84.525000000000006          3.8520517342283817E-014
  -84.510000000000005          4.0652207891189035E-014
  -84.495000000000005          4.2226994606065285E-014
  -84.480000000000004          4.3194997410714656E-014
  -84.465000000000003          4.3516409144747983E-014
  -84.450000000000003          4.3162491674330825E-014
  -84.435000000000002          4.2116307728649882E-014
  -84.420000000000002          4.0373212179022414E-014
  -84.405000000000001          3.7941031609881049E-014
  -84.390000000000001          3.4839979615479064E-014
  -84.375000000000000          3.1102260388471067E-014
  -84.359999999999999          2.6771401257950564E-014
  -84.344999999999999          2.1901326035405656E-014
  -84.329999999999998          1.6555187803317731E-014
  -84.314999999999998          1.0804011121347008E-014
  -84.299999999999997          4.7251618613133265E-015
  -84.284999999999997         -1.5992898957326593E-015
  -84.269999999999996         -8.0842747250740692E-015
  -84.254999999999995         -1.4643436135430669E-014
  -84.239999999999995         -2.1190811082326226E-014
  -84.224999999999994         -2.7642413707941633E-014
  -84.209999999999994         -3.3917672544268168E-014
  -84.194999999999993         -3.9940690051100056E-014
  -84.180000000000007         -4.5641289548757277E-014
  -84.165000000000006         -5.0955784324001677E-014
  -84.150000000000006         -5.5827494320134785E-014
  -84.135000000000005         -6.0206986694354842E-014
  -84.120000000000005         -6.4052021607648169E-014
  -84.105000000000004         -6.7327220187873849E-014
  -84.090000000000003         -7.0003512264282114E-014
  -84.075000000000003         -7.2057397754784341E-014
  -84.060000000000002         -7.3469977660261393E-014
  -84.045000000000002         -7.4225924072499755E-014
  -84.030000000000001         -7.4312382419491896E-014
  -84.015000000000001         -7.3717921144581672E-014
  -84.000000000000000         -7.2431535595718355E-014
  -83.984999999999999         -7.0441814545036535E-014
  -83.969999999999999         -6.7736323548870520E-014
  -83.954999999999998         -6.4301306792156898E-014
  -83.939999999999998         -6.0121659983380232E-014
  -83.924999999999997         -5.5181340318519526E-014
  -83.909999999999997         -4.9464132198832542E-014
  -83.894999999999996         -4.2954860182036272E-014
  -83.879999999999995         -3.5640984792379565E-014
  -83.864999999999995         -2.7514626929387061E-014
  -83.849999999999994         -1.8574888738134669E-014
  -83.834999999999994         -8.8304938109461627E-015
  -83.819999999999993          1.6973931458045340E-015
  -83.805000000000007          1.2972219801707201E-014
  -83.790000000000006          2.4939123303372585E-014
  -83.775000000000006          3.7522126383618751E-014
  -83.760000000000005          5.0621602721255543E-014
  -83.745000000000005          6.4112133841848912E-014
  -83.730000000000004          7.7840931942373126E-014
  -83.715000000000003          9.1626894602441639E-014
  -83.700000000000003          1.0526047942343089E-013
  -83.685000000000002          1.1850450362758252E-013
  -83.670000000000002          1.3109588555774293E-013
  -83.655000000000001          1.4274853814191107E-013
  -83.640000000000001          1.5315725846853229E-013
  -83.625000000000000          1.6200281676044537E-013
  -83.609999999999999          1.6895806856462997E-013
  -83.594999999999999          1.7369509693401786E-013
  -83.579999999999998          1.7589323552356928E-013
  -83.564999999999998          1.7524794549556022E-013
  -83.549999999999997          1.7148015321079291E-013
  -83.534999999999997          1.6434604870572966E-013
  -83.519999999999996          1.5364700614237115E-013
  -83.504999999999995          1.3923931452275440E-013
  -83.489999999999995          1.2104355603774486E-013
  -83.474999999999994          9.9053198369253304E-014
  -83.459999999999994          7.3342197657970398E-014
  -83.444999999999993          4.4071256382781018E-014
  -83.430000000000007          1.1492463407249305E-014
  -83.415000000000006         -2.4047912505721289E-014
  -83.400000000000006         -6.2108772172584509E-014
  -83.385000000000005         -1.0215579196361929E-013
  -83.370000000000005         -1.4356551158393321E-013
  -83.355000000000004         -1.8563190535506729E-013
  -83.340000000000003         -2.2757549967764024E-013
  -83.325000000000003         -2.6855503498096622E-013
  -83.310000000000002         -3.0768145193107999E-013
  -83.295000000000002         -3.4403410025321546E-013
  -83.280000000000001         -3.7667891267072207E-013
  -83.265000000000001         -4.0468816448965828E-013
  -83.250000000000000         -4.2716148001588350E-013
  -83.234999999999999         -4.4324765212377937E-013
  -83.219999999999999         -4.5216667866540550E-013
  -83.204999999999998         -4.5323174466954663E-013
  -83.189999999999998         -4.4587025586385887E-013
  -83.174999999999997         -4.2964359825946319E-013
  -83.159999999999997         -4.0426505459184581E-013
  -83.144999999999996         -3.6961522709676176E-013
  -83.129999999999995         -3.2575453294027279E-013
  -83.114999999999995         -2.7293236572710489E-013
  -83.099999999999994         -2.1159247585392921E-013
  -83.084999999999994         -1.4237410892164321E-013
  -83.069999999999993         -6.6109051284450604E-014
  -83.055000000000007          1.6185972917873159E-014
  -83.040000000000006          1.0332128897025047E-013
  -83.025000000000006          1.9395067691642398E-013
  -83.010000000000005          2.8659190363759801E-013
  -82.995000000000005          3.7965130713669970E-013
  -82.980000000000004          4.7145159954783966E-013
  -82.965000000000003          5.6026282788460002E-013
  -82.950000000000003          6.4433555062651249E-013
  -82.935000000000002          7.2193574902901236E-013
  -82.920000000000002          7.9138047026985903E-013
  -82.905000000000001          8.5107376875115381E-013
  -82.890000000000001          8.9954178003961993E-013
  -82.875000000000000          9.3546611429351501E-013
  -82.859999999999999          9.5771546075595904E-013
  -82.844999999999999          9.6537318070022415E-013
  -82.829999999999998          9.5776197302915866E-013
  -82.814999999999998          9.3446322728396591E-013
  -82.799999999999997          8.9533171458364147E-013
  -82.784999999999997          8.4050507439398237E-013
  -82.769999999999996          7.7040712134421319E-013
  -82.754999999999995          6.8574529735188072E-013
  -82.739999999999995          5.8750259431666896E-013
  -82.724999999999994          4.7692291739107051E-013
  -82.709999999999994          3.5549167776149915E-013
  -82.694999999999993          2.2491076113063252E-013
  -82.680000000000007          8.7069132286010653E-014
  -82.665000000000006         -5.5990707404675322E-014
  -82.650000000000006         -2.0210924405426878E-013
  -82.635000000000005         -3.4904888766666697E-013
  -82.620000000000005         -4.9453442643038192E-013
  -82.605000000000004         -6.3629396890307888E-013
  -82.590000000000003         -7.7209934409502856E-013
  -82.575000000000003         -8.9980545800796841E-013
  -82.560000000000002         -1.0173871294039127E-012
  -82.545000000000002         -1.1229731337533688E-012
  -82.530000000000001         -1.2148765066860578E-012
  -82.515000000000001         -1.2916204564228373E-012
  -82.500000000000000         -1.3519594515079558E-012
  -82.484999999999999         -1.3948952670012060E-012
  -82.469999999999999         -1.4196876096592148E-012
  -82.454999999999998         -1.4258596473665230E-012
  -82.439999999999998         -1.4131980091355856E-012
  -82.424999999999997         -1.3817479061969951E-012
  -82.409999999999997         -1.3318039162810158E-012
  -82.394999999999996         -1.2638966479308622E-012
  -82.379999999999995         -1.1787759353690253E-012
  -82.364999999999995         -1.0773915396986022E-012
  -82.349999999999994         -9.6087189854071609E-013
  -82.334999999999994         -8.3050162883943623E-013
  -82.319999999999993         -6.8769908387680823E-013
  -82.305000000000007         -5.3399391028788323E-013
  -82.290000000000006         -3.7100615006384341E-013
  -82.275000000000006         -2.0042668425531568E-013
  -82.260000000000005         -2.4000343135403487E-014
  -82.245000000000005          1.5648879490414574E-013
  -82.230000000000004          3.3922907885508558E-013
  -82.215000000000003          5.2239012811663987E-013
  -82.200000000000003          7.0412908359865356E-013
  -82.185000000000002          8.8259429062084727E-013
  -82.170000000000002          1.0559268303483860E-012
  -82.155000000000001          1.2222611161030739E-012
  -82.140000000000001          1.3797241344218336E-012
  -82.125000000000000          1.5264351197960546E-012
  -82.109999999999999          1.6605056088817016E-012
  -82.094999999999999          1.7800423678451804E-012
  -82.079999999999998          1.8831516207518106E-012
  -82.064999999999998          1.9679472895023364E-012
  -82.049999999999997          2.0325646547803000E-012
  -82.034999999999997          2.0751761854037598E-012
  -82.019999999999996          2.0940150655124334E-012
  -82.004999999999995          2.0874036006646168E-012
  -81.989999999999995          2.0537866112640968E-012
  -81.974999999999994          1.9917698133170569E-012
  -81.960000000000008          1.9001644875615842E-012
  -81.944999999999993          1.7780356180441270E-012
  -81.930000000000007          1.6247520906800816E-012
  -81.915000000000006          1.4400404696815472E-012
  -81.900000000000006          1.2240374729424741E-012
  -81.885000000000005          9.7734233900359513E-013
  -81.870000000000005          7.0106485720866640E-013
  -81.855000000000004          3.9686933210256181E-013
  -81.840000000000003          6.7010504404500099E-014