  -90.000000000000000          0.0000000000000000     
  -89.984999999999999          0.0000000000000000     
  -89.969999999999999          0.0000000000000000     
  -89.954999999999998          0.0000000000000000     
  -89.939999999999998          0.0000000000000000     
  -89.924999999999997          0.0000000000000000     
  -89.909999999999997          0.0000000000000000     
  -89.894999999999996          0.0000000000000000     
  -89.879999999999995          0.0000000000000000     
  -89.864999999999995          0.0000000000000000     
  -89.849999999999994          0.0000000000000000     
  -89.834999999999994          0.0000000000000000     
  -89.819999999999993          0.0000000000000000     
  -89.805000000000007          0.0000000000000000     
  -89.790000000000006          0.0000000000000000     
  -89.775000000000006          0.0000000000000000     
  -89.760000000000005          0.0000000000000000     
  -89.745000000000005          0.0000000000000000     
  -89.730000000000004          0.0000000000000000     
  -89.715000000000003          0.0000000000000000     
  -89.700000000000003          0.0000000000000000     
  -89.685000000000002          0.0000000000000000     
  -89.670000000000002          0.0000000000000000     
  -89.655000000000001          0.0000000000000000     
  -89.640000000000001          0.0000000000000000     
  -89.625000000000000          0.0000000000000000     
  -89.609999999999999          0.0000000000000000     
  -89.594999999999999          0.0000000000000000     
  -89.579999999999998          0.0000000000000000     
  -89.564999999999998          0.0000000000000000     
  -89.549999999999997          0.0000000000000000     
  -89.534999999999997          0.0000000000000000     
  -89.519999999999996          0.0000000000000000     
  -89.504999999999995          0.0000000000000000     
  -89.489999999999995          0.0000000000000000     
  -89.474999999999994          0.0000000000000000     
  -89.459999999999994          0.0000000000000000     
  -89.444999999999993          0.0000000000000000     
  -89.430000000000007          0.0000000000000000     
  -89.415000000000006          0.0000000000000000     
  -89.400000000000006          0.0000000000000000     
  -89.385000000000005          0.0000000000000000     
  -89.370000000000005          0.0000000000000000     
  -89.355000000000004          0.0000000000000000     
  -89.340000000000003          0.0000000000000000     
  -89.325000000000003          0.0000000000000000     
  -89.310000000000002          0.0000000000000000     
  -89.295000000000002          0.0000000000000000     
  -89.280000000000001          0.0000000000000000     
  -89.265000000000001          0.0000000000000000     
  -89.250000000000000          0.0000000000000000     
  -89.234999999999999          0.0000000000000000     
  -89.219999999999999          0.0000000000000000     
  -89.204999999999998          0.0000000000000000     
  -89.189999999999998          0.0000000000000000     
  -89.174999999999997          0.0000000000000000     
  -89.159999999999997          0.0000000000000000     
  -89.144999999999996          0.0000000000000000     
  -89.129999999999995          0.0000000000000000     
  -89.114999999999995          0.0000000000000000     
  -89.099999999999994          0.0000000000000000     
  -89.084999999999994          0.0000000000000000     
  -89.069999999999993          0.0000000000000000     
  -89.055000000000007          0.0000000000000000     
  -89.040000000000006          0.0000000000000000     
  -89.025000000000006          0.0000000000000000     
  -89.010000000000005          0.0000000000000000     
  -88.995000000000005          0.0000000000000000     
  -88.980000000000004          0.0000000000000000     
  -88.965000000000003          0.0000000000000000     
  -88.950000000000003          0.0000000000000000     
  -88.935000000000002          0.0000000000000000     
  -88.920000000000002          0.0000000000000000     
  -88.905000000000001          0.0000000000000000     
  -88.890000000000001          0.0000000000000000     
  -88.875000000000000          0.0000000000000000     
  -88.859999999999999          0.0000000000000000     
  -88.844999999999999          0.0000000000000000     
  -88.829999999999998          0.0000000000000000     
  -88.814999999999998          0.0000000000000000     
  -88.799999999999997          0.0000000000000000     
  -88.784999999999997          0.0000000000000000     
  -88.769999999999996          0.0000000000000000     
  -88.754999999999995          0.0000000000000000     
  -88.739999999999995          0.0000000000000000     
  -88.724999999999994          0.0000000000000000     
  -88.709999999999994          0.0000000000000000     
  -88.694999999999993          0.0000000000000000     
  -88.680000000000007          0.0000000000000000     
  -88.665000000000006          0.0000000000000000     
  -88.650000000000006          0.0000000000000000     
  -88.635000000000005          0.0000000000000000     
  -88.620000000000005          0.0000000000000000     
  -88.605000000000004          0.0000000000000000     
  -88.590000000000003          0.0000000000000000     
  -88.575000000000003          0.0000000000000000     
  -88.560000000000002          0.0000000000000000     
  -88.545000000000002          0.0000000000000000     
  -88.530000000000001          0.0000000000000000     
  -88.515000000000001          0.0000000000000000     
  -88.500000000000000          0.0000000000000000     
  -88.484999999999999          0.0000000000000000     
  -88.469999999999999          0.0000000000000000     
  -88.454999999999998          0.0000000000000000     
  -88.439999999999998          0.0000000000000000     
  -88.424999999999997          0.0000000000000000     
  -88.409999999999997          0.0000000000000000     
  -88.394999999999996          0.0000000000000000     
  -88.379999999999995          0.0000000000000000     
  -88.364999999999995          0.0000000000000000     
  -88.349999999999994          0.0000000000000000     
  -88.334999999999994          0.0000000000000000     
  -88.319999999999993          0.0000000000000000     
  -88.305000000000007          0.0000000000000000     
  -88.290000000000006          0.0000000000000000     
  -88.275000000000006          0.0000000000000000     
  -88.260000000000005          0.0000000000000000     
  -88.245000000000005          0.0000000000000000     
  -88.230000000000004          0.0000000000000000     
  -88.215000000000003          0.0000000000000000     
  -88.200000000000003          0.0000000000000000     
  -88.185000000000002          0.0000000000000000     
  -88.170000000000002          0.0000000000000000     
  -88.155000000000001          0.0000000000000000     
  -88.140000000000001          0.0000000000000000     
  -88.125000000000000          0.0000000000000000     
  -88.109999999999999          0.0000000000000000     
  -88.094999999999999          0.0000000000000000     
  -88.079999999999998          0.0000000000000000     
  -88.064999999999998          0.0000000000000000     
  -88.049999999999997          0.0000000000000000     
  -88.034999999999997          0.0000000000000000     
  -88.019999999999996          0.0000000000000000     
  -88.004999999999995          0.0000000000000000     
  -87.989999999999995          0.0000000000000000     
  -87.974999999999994          0.0000000000000000     
  -87.959999999999994          0.0000000000000000     
  -87.944999999999993          0.0000000000000000     
  -87.930000000000007          0.0000000000000000     
  -87.915000000000006          0.0000000000000000     
  -87.900000000000006          0.0000000000000000     
  -87.885000000000005          0.0000000000000000     
  -87.870000000000005          0.0000000000000000     
  -87.855000000000004          0.0000000000000000     
  -87.840000000000003          0.0000000000000000     
  -87.825000000000003          0.0000000000000000     
  -87.810000000000002          0.0000000000000000     
  -87.795000000000002          0.0000000000000000     
  -87.780000000000001          0.0000000000000000     
  -87.765000000000001          0.0000000000000000     
  -87.750000000000000          0.0000000000000000     
  -87.734999999999999          0.0000000000000000     
  -87.719999999999999          0.0000000000000000     
  -87.704999999999998          0.0000000000000000     
  -87.689999999999998          0.0000000000000000     
  -87.674999999999997          0.0000000000000000     
  -87.659999999999997          0.0000000000000000     
  -87.644999999999996          0.0000000000000000     
  -87.629999999999995          0.0000000000000000     
  -87.614999999999995          0.0000000000000000     
  -87.599999999999994          0.0000000000000000     
  -87.584999999999994          0.0000000000000000     
  -87.569999999999993          0.0000000000000000     
  -87.555000000000007          0.0000000000000000     
  -87.540000000000006          0.0000000000000000     
  -87.525000000000006          0.0000000000000000     
  -87.510000000000005          0.0000000000000000     
  -87.495000000000005          0.0000000000000000     
  -87.480000000000004          0.0000000000000000     
  -87.465000000000003          0.0000000000000000     
  -87.450000000000003          0.0000000000000000     
  -87.435000000000002          0.0000000000000000     
  -87.420000000000002          0.0000000000000000     
  -87.405000000000001          0.0000000000000000     
  -87.390000000000001          0.0000000000000000     
  -87.375000000000000          0.0000000000000000     
  -87.359999999999999          0.0000000000000000     
  -87.344999999999999          0.0000000000000000     
  -87.329999999999998          0.0000000000000000     
  -87.314999999999998          0.0000000000000000     
  -87.299999999999997          0.0000000000000000     
  -87.284999999999997          0.0000000000000000     
  -87.269999999999996          0.0000000000000000     
  -87.254999999999995          0.0000000000000000     
  -87.239999999999995          0.0000000000000000     
  -87.224999999999994          0.0000000000000000     
  -87.209999999999994          0.0000000000000000     
  -87.194999999999993          0.0000000000000000     
  -87.180000000000007          0.0000000000000000     
  -87.165000000000006          0.0000000000000000     
  -87.150000000000006          0.0000000000000000     
  -87.135000000000005          0.0000000000000000     
  -87.120000000000005          0.0000000000000000     
  -87.105000000000004          0.0000000000000000     
  -87.090000000000003          0.0000000000000000     
  -87.075000000000003          0.0000000000000000     
  -87.060000000000002          0.0000000000000000     
  -87.045000000000002          0.0000000000000000     
  -87.030000000000001          0.0000000000000000     
  -87.015000000000001          0.0000000000000000     
  -87.000000000000000          0.0000000000000000     
  -86.984999999999999          0.0000000000000000     
  -86.969999999999999          0.0000000000000000     
  -86.954999999999998          0.0000000000000000     
  -86.939999999999998          0.0000000000000000     
  -86.924999999999997          0.0000000000000000     
  -86.909999999999997          0.0000000000000000     
  -86.894999999999996          0.0000000000000000     
  -86.879999999999995          0.0000000000000000     
  -86.864999999999995          0.0000000000000000     
  -86.849999999999994          0.0000000000000000     
  -86.834999999999994          0.0000000000000000     
  -86.819999999999993          0.0000000000000000     
  -86.805000000000007          0.0000000000000000     
  -86.790000000000006          0.0000000000000000     
  -86.775000000000006          0.0000000000000000     
  -86.760000000000005          0.0000000000000000     
  -86.745000000000005          0.0000000000000000     
  -86.730000000000004          0.0000000000000000     
  -86.715000000000003          0.0000000000000000     
  -86.700000000000003          0.0000000000000000     
  -86.685000000000002          0.0000000000000000     
  -86.670000000000002          0.0000000000000000     
  -86.655000000000001          0.0000000000000000     
  -86.640000000000001          0.0000000000000000     
  -86.625000000000000          0.0000000000000000     
  -86.609999999999999          0.0000000000000000     
  -86.594999999999999          0.0000000000000000     
  -86.579999999999998          0.0000000000000000     
  -86.564999999999998          0.0000000000000000     
  -86.549999999999997          0.0000000000000000     
  -86.534999999999997          0.0000000000000000     
  -86.519999999999996          0.0000000000000000     
  -86.504999999999995          0.0000000000000000     
  -86.489999999999995          0.0000000000000000     
  -86.474999999999994          0.0000000000000000     
  -86.459999999999994          0.0000000000000000     
  -86.444999999999993          0.0000000000000000     
  -86.430000000000007          0.0000000000000000     
  -86.415000000000006          0.0000000000000000     
  -86.400000000000006          0.0000000000000000     
  -86.385000000000005          0.0000000000000000     
  -86.370000000000005          0.0000000000000000     
  -86.355000000000004          0.0000000000000000     
  -86.340000000000003          0.0000000000000000     
  -86.325000000000003          0.0000000000000000     
  -86.310000000000002          0.0000000000000000     
  -86.295000000000002          0.0000000000000000     
  -86.280000000000001          0.0000000000000000     
  -86.265000000000001          0.0000000000000000     
  -86.250000000000000          0.0000000000000000     
  -86.234999999999999          0.0000000000000000     
  -86.219999999999999          0.0000000000000000     
  -86.204999999999998          0.0000000000000000     
  -86.189999999999998          0.0000000000000000     
  -86.174999999999997         -1.3925323615215403E-038
  -86.159999999999997         -3.5852490259055595E-038
  -86.144999999999996         -6.7435549198557196E-038
  -86.129999999999995         -1.0970664783709561E-037
  -86.114999999999995         -1.6362603435514022E-037
  -86.099999999999994         -2.3005251413473097E-037
  -86.084999999999994         -3.0971211672581613E-037
  -86.069999999999993         -3.9792011078556669E-037
  -86.055000000000007         -4.8960467028336855E-037
  -86.040000000000006         -5.8459315524841688E-037
  -86.025000000000006         -6.8325111400330933E-037
  -86.010000000000005         -7.8611023281657387E-037
  -85.995000000000005         -8.9845804799922890E-037
  -85.980000000000004         -1.0252333631212671E-036
  -85.965000000000003         -1.1657283991439396E-036
  -85.950000000000003         -1.3619996878849273E-036
  -85.935000000000002         -1.6105501264758859E-036
  -85.920000000000002         -1.9116317244326395E-036
  -85.905000000000001         -2.2704471778519824E-036
  -85.890000000000001         -2.6849956567346131E-036
  -85.875000000000000         -3.1585839564070330E-036
  -85.859999999999999         -3.7069164848108689E-036
  -85.844999999999999         -4.3256850451058497E-036
  -85.829999999999998         -5.0197170992911867E-036
  -85.814999999999998         -5.6771753083991969E-036
  -85.799999999999997         -6.2854172249470680E-036
  -85.784999999999997         -6.8207055255724005E-036
  -85.769999999999996         -7.2899935205175004E-036
  -85.754999999999995         -7.6798581605822126E-036
  -85.739999999999995         -8.0286264161162237E-036
  -85.724999999999994         -8.3279599110543136E-036
  -85.709999999999994         -8.5685674760586231E-036
  -85.694999999999993         -8.7440880680905838E-036
  -85.680000000000007         -8.8446830921594572E-036
  -85.665000000000006         -8.8019257765849612E-036
  -85.650000000000006         -8.5524094509885128E-036
  -85.635000000000005         -8.0917970405710881E-036
  -85.620000000000005         -7.4298381746865227E-036
  -85.605000000000004         -6.6386072161281236E-036
  -85.590000000000003         -5.6051529618048854E-036
  -85.575000000000003         -4.2699208099231645E-036
  -85.560000000000002         -2.5687371202184958E-036
  -85.545000000000002         -4.5416406087933502E-037
  -85.530000000000001          2.0065428128809062E-036
  -85.515000000000001          4.7895145677480590E-036
  -85.500000000000000          7.8740572315749322E-036
  -85.484999999999999          1.1261822049630335E-035
  -85.469999999999999          1.4959577584967038E-035
  -85.454999999999998          1.8800574252900981E-035
  -85.439999999999998          2.2818900959127122E-035
  -85.424999999999997          2.6962095241535582E-035
  -85.409999999999997          3.1217769352652425E-035
  -85.394999999999996          3.5523832452567455E-035
  -85.379999999999995          3.9768856515989225E-035
  -85.364999999999995          4.3965305341661928E-035
  -85.349999999999994          4.8057015783966442E-035
  -85.334999999999994          5.1996821706047874E-035
  -85.319999999999993          5.5753909429085962E-035
  -85.305000000000007          5.9268207059156361E-035
  -85.290000000000006          6.2495696695006844E-035
  -85.275000000000006          6.5371226791831825E-035
  -85.260000000000005          6.7744617614820440E-035
  -85.245000000000005          6.9502113682825487E-035
  -85.230000000000004          7.0480069881411935E-035
  -85.215000000000003          7.0612508146308778E-035
  -85.200000000000003          6.9762547670492530E-035
  -85.185000000000002          6.7779916883656168E-035
  -85.170000000000002          6.4498542770434984E-035
  -85.155000000000001          5.9767935651218580E-035
  -85.140000000000001          5.3443810482105732E-035
  -85.125000000000000          4.5180314784565446E-035
  -85.109999999999999          3.4794328579258687E-035
  -85.094999999999999          2.2109711384554427E-035
  -85.079999999999998          6.8597241320025270E-036
  -85.064999999999998         -1.1205104303710197E-035
  -85.049999999999997         -3.2232431051109520E-035
  -85.034999999999997         -5.6601407565661474E-035
  -85.019999999999996         -8.4435104891654786E-035
  -85.004999999999995         -1.1581416894401245E-034
  -84.989999999999995         -1.5082686511397931E-034
  -84.974999999999994         -1.8950564577001020E-034
  -84.959999999999994         -2.3178402201288673E-034
  -84.944999999999993         -2.7755740469192197E-034
  -84.930000000000007         -3.2661372268761309E-034
  -84.915000000000006         -3.7863630425033328E-034
  -84.900000000000006         -4.3319180063258702E-034
  -84.885000000000005         -4.8971893624073072E-034
  -84.870000000000005         -5.4751849856589147E-034
  -84.855000000000004         -6.0574316740276755E-034
  -84.840000000000003         -6.6340933866975882E-034
  -84.825000000000003         -7.1936810439218071E-034
  -84.810000000000002         -7.7230006399673137E-034
  -84.795000000000002         -8.2072069668801686E-034
  -84.780000000000001         -8.6298660626228995E-034
  -84.765000000000001         -8.9729625579141931E-034
  -84.750000000000000         -9.2170291642784784E-034
  -84.734999999999999         -9.3412798355153558E-034
  -84.719999999999999         -9.3238007855316053E-034
  -84.704999999999998         -9.1417938524060057E-034
  -84.689999999999998         -8.7719539422785435E-034
  -84.674999999999997         -8.1905415793923780E-034
  -84.659999999999997         -7.3740638662978526E-034
  -84.644999999999996         -6.2996468767894158E-034
  -84.629999999999995         -4.9459218684435452E-034
  -84.614999999999995         -3.2924581984299727E-034
  -84.599999999999994         -1.3212108805198741E-034
  -84.584999999999994          9.8253649395732822E-035
  -84.569999999999993          3.6297979856446026E-034
  -84.555000000000007          6.6275909743921216E-034
  -84.540000000000006          9.9775437035467663E-034
  -84.525000000000006          1.3675295364573475E-033
  -84.510000000000005          1.7709692995641339E-033
  -84.495000000000005          2.2061953482721166E-033
  -84.480000000000004          2.6704840254362418E-033
  -84.465000000000003          3.1601876251491141E-033
  -84.450000000000003          3.6706651487768934E-033
  -84.435000000000002          4.1961956122509212E-033
  -84.420000000000002          4.7299170672982726E-033
  -84.405000000000001          5.2637707654600916E-033
  -84.390000000000001          5.7884556076854967E-033
  -84.375000000000000          6.2933961855789183E-033
  -84.359999999999999          6.7667310264565902E-033
  -84.344999999999999          7.1953177361343348E-033
  -84.329999999999998          7.5647653250222101E-033
  -84.314999999999998          7.8594926155000666E-033
  -84.299999999999997          8.0628208120976748E-033
  -84.284999999999997          8.1570991324534685E-033
  -84.269999999999996          8.1238759886793844E-033
  -84.254999999999995          7.9441076376081319E-033
  -84.239999999999995          7.5984219323381600E-033
  -84.224999999999994          7.0674320322885318E-033
  -84.209999999999994          6.3321059492354655E-033
  -84.194999999999993          5.3741911946465678E-033
  -84.180000000000007          4.1767095893341340E-033
  -84.165000000000006          2.7244985418695029E-033
  -84.150000000000006          1.0048207444420494E-033
  -84.135000000000005         -9.9197121365511945E-034
  -84.120000000000005         -3.2717236719429176E-033
  -84.105000000000004         -5.8356983583030598E-033
  -84.090000000000003         -8.6797922464381991E-033
  -84.075000000000003         -1.1793704699757271E-032
  -84.060000000000002         -1.5160100850005492E-032
  -84.045000000000002         -1.8753782506405049E-032
  -84.030000000000001         -2.2540890288864475E-032
  -84.015000000000001         -2.6478148372858248E-032
  -84.000000000000000         -3.0512204008538420E-032
  -83.984999999999999         -3.4579067691550042E-032
  -83.969999999999999         -3.8603695862536620E-032
  -83.954999999999998         -4.2499751400166132E-032
  -83.939999999999998         -4.6169588927451650E-032
  -83.924999999999997         -4.9504492849357373E-032
  -83.909999999999997         -5.2385182815369487E-032
  -83.894999999999996         -5.4682680646579894E-032
  -83.879999999999995         -5.6259541666018697E-032
  -83.864999999999995         -5.6971450432235445E-032
  -83.849999999999994         -5.6669266099469560E-032
  -83.834999999999994         -5.5201514465674081E-032
  -83.819999999999993         -5.2417350218279739E-032
  -83.805000000000007         -4.8169951174132953E-032
  -83.790000000000006         -4.2320400349589422E-032
  -83.775000000000006         -3.4741997086045765E-032
  -83.760000000000005         -2.5324979598493953E-032
  -83.745000000000005         -1.3981610457956546E-032
  -83.730000000000004         -6.5154997820240431E-034
  -83.715000000000003          1.4692543563862112E-032
  -83.700000000000003          3.2039303413371039E-032
  -83.685000000000002          5.1332939047230916E-032
  -83.670000000000002          7.2467645688292169E-032
  -83.655000000000001          9.5282310080831094E-032
  -83.640000000000001          1.1955562778089013E-031
  -83.625000000000000          1.4500188313155842E-031
  -83.609999999999999          1.7126751681946738E-031
  -83.594999999999999          1.9792863382676700E-031
  -83.579999999999998          2.2448984556919023E-031
  -83.564999999999998          2.5038441095537512E-031
  -83.549999999999997          2.7497591734378649E-031
  -83.534999999999997          2.9756184229059890E-031
  -83.519999999999996          3.1737905486325854E-031
  -83.504999999999995          3.3361122125489334E-031
  -83.489999999999995          3.4539860840719891E-031
  -83.474999999999994          3.5185000352315582E-031
  -83.459999999999994          3.5205703158822264E-031
  -83.444999999999993          3.4511068282090850E-031
  -83.430000000000007          3.3012026164170833E-031
  -83.415000000000006          3.0623423994288646E-031
  -83.400000000000006          2.7266327326786573E-031
  -83.385000000000005          2.2870486268270773E-031
  -83.370000000000005          1.7376945075070105E-031
  -83.355000000000004          1.0740770475624386E-031
  -83.340000000000003          2.9338296575089742E-032
  -83.325000000000003         -6.0523917787327234E-032
  -83.310000000000002         -1.6204022705887417E-031
  -83.295000000000002         -2.7482119877733126E-031
  -83.280000000000001         -3.9820157954726590E-031
  -83.265000000000001         -5.3121713486258559E-031
  -83.250000000000000         -6.7258471859981972E-031
  -83.234999999999999         -8.2068576907743409E-031
  -83.219999999999999         -9.7355438954311349E-031
  -83.204999999999998         -1.1288702952076568E-030
  -83.189999999999998         -1.2839575907308522E-030
  -83.174999999999997         -1.4357901774954909E-030
  -83.159999999999997         -1.5810043549068078E-030
  -83.144999999999996         -1.7159185686975757E-030
  -83.129999999999995         -1.8365613406738803E-030
  -83.114999999999995         -1.9387087904947990E-030
  -83.099999999999994         -2.0179297746554720E-030
  -83.084999999999994         -2.0696402413458848E-030
  -83.069999999999993         -2.0891677415808407E-030
  -83.055000000000007         -2.0718242158101645E-030
  -83.040000000000006         -2.0129879964046151E-030
  -83.025000000000006         -1.9081938975429330E-030
  -83.010000000000005         -1.7532328971327900E-030
  -82.995000000000005         -1.5442576491837186E-030
  -82.980000000000004         -1.2778956133834357E-030
  -82.965000000000003         -9.5136801512614557E-031
  -82.950000000000003         -5.6261294328095773E-031
  -82.935000000000002         -1.1041195093347090E-031
  -82.920000000000002          4.0548179222010059E-031
  -82.905000000000001          9.8421537098868711E-031
  -82.890000000000001          1.6237099706326335E-030
  -82.875000000000000          2.3205392602181629E-030
  -82.859999999999999          3.0698138415226911E-030
  -82.844999999999999          3.8650750783850601E-030
  -82.829999999999998          4.6982022796715972E-030
  -82.814999999999998          5.5593322014229710E-030
  -82.799999999999997          6.4368001780971017E-030
  -82.784999999999997          7.3171006259589737E-030
  -82.769999999999996          8.1848750060184835E-030
  -82.754999999999995          9.0229283749908986E-030
  -82.739999999999995          9.8122782858618525E-030
  -82.724999999999994          1.0532245065853487E-029
  -82.709999999999994          1.1160579710209823E-029
  -82.694999999999993          1.1673638419597968E-029
  -82.680000000000007          1.2046608295023478E-029
  -82.665000000000006          1.2253783437943474E-029
  -82.650000000000006          1.2268899731057760E-029
  -82.635000000000005          1.2065527547461544E-029
  -82.620000000000005          1.1617523140476154E-029
  -82.605000000000004          1.0899545485005207E-029
  -82.590000000000003          9.8876295426196186E-030
  -82.575000000000003          8.5598272351172199E-030
  -82.560000000000002          6.8968980709637516E-030
  -82.545000000000002          4.8830539385135456E-030
  -82.530000000000001          2.5067526117161037E-030
  -82.515000000000001         -2.3847385550499039E-031
  -82.500000000000000         -3.3531651561160863E-030
  -82.484999999999999         -6.8310658734193963E-030
  -82.469999999999999         -1.0658262574159944E-029
  -82.454999999999998         -1.4812343753242691E-029
  -82.439999999999998         -1.9261600027376240E-029
  -82.424999999999997         -2.3964302663660073E-029
  -82.409999999999997         -2.8868058844443012E-029
  -82.394999999999996         -3.3909309872294741E-029
  -82.379999999999995         -3.9012955011813539E-029
  -82.364999999999995         -4.4092188989287230E-029
  -82.349999999999994         -4.9048530580715786E-029
  -82.334999999999994         -5.3772114510568530E-029
  -82.319999999999993         -5.8142242147377607E-029
  -82.305000000000007         -6.2028263218540647E-029
  -82.290000000000006         -6.5290776507270473E-029
  -82.275000000000006         -6.7783188652143833E-029
  -82.260000000000005         -6.9353670169701176E-029
  -82.245000000000005         -6.9847448514786682E-029
  -82.230000000000004         -6.9109570586312246E-029
  -82.215000000000003         -6.6987966159575267E-029
  -82.200000000000003         -6.3336968726938231E-029
  -82.185000000000002         -5.8021149302124260E-029
  -82.170000000000002         -5.0919451151066461E-029
  -82.155000000000001         -4.1929622440045565E-029
  -82.140000000000001         -3.0972871569477365E-029
  -82.125000000000000         -1.7998617299564624E-029
  -82.109999999999999         -2.9893306585478791E-030
  -82.094999999999999          1.4034699885314965E-029
  -82.079999999999998          3.3010749201147647E-029
  -82.064999999999998          5.3829326666978984E-029
  -82.049999999999997          7.6330225004091337E-029
  -82.034999999999997          1.0029919353396824E-028
  -82.019999999999996          1.2546523585784119E-028
  -82.004999999999995          1.5149878925103906E-028
  -81.989999999999995          1.7801088808716854E-028
  -81.974999999999994          2.0455345272760581E-028
  -81.960000000000008          2.3062081822838982E-028
  -81.944999999999993          2.5565277971694696E-028
  -81.930000000000007          2.7903893777152798E-028
  -81.915000000000006          3.0012483732290581E-028
  -81.900000000000006          3.1821952692940720E-028
  -81.885000000000005          3.3260504398188892E-028
  -81.870000000000005          3.4254734435617206E-028
  -81.855000000000004          3.4730910984717228E-028
  -81.840000000000003          3.4616385560574241E-028