  -90.000000000000000          0.0000000000000000     
  -89.984999999999999          0.0000000000000000     
  -89.969999999999999          0.0000000000000000     
  -89.954999999999998          0.0000000000000000     
  -89.939999999999998          0.0000000000000000     
  -89.924999999999997          0.0000000000000000     
  -89.909999999999997          0.0000000000000000     
  -89.894999999999996         -1.4636700823105536E-030
  -89.879999999999995         -2.1440941727360072E-029
  -89.864999999999995         -1.6699423176753329E-028
  -89.849999999999994         -9.1841888665542170E-028
  -89.834999999999994         -3.9984647576291391E-027
  -89.819999999999993         -1.4653020440258341E-026
  -89.805000000000007         -4.6951130615592634E-026
  -89.790000000000006         -1.3495041040425520E-025
  -89.775000000000006         -3.5436800362743709E-025
  -89.760000000000005         -8.6178498223667888E-025
  -89.745000000000005         -1.9613166668736400E-024
  -89.730000000000004         -4.2118585350243435E-024
  -89.715000000000003         -8.5910013358880443E-024
  -89.700000000000003         -1.6733764016820458E-023
  -89.685000000000002         -3.1264438318306745E-023
  -89.670000000000002         -5.6236751662615172E-023
  -89.655000000000001         -9.7689896551703043E-023
  -89.640000000000001         -1.6431407200256813E-022
  -89.625000000000000         -2.6819761213286170E-022
  -89.609999999999999         -4.2559750131689768E-022
  -89.594999999999999         -6.5763489075768069E-022
  -89.579999999999998         -9.9076779656308896E-022
  -89.564999999999998         -1.4568361089936826E-021
  -89.549999999999997         -2.0924066738283020E-021
  -89.534999999999997         -2.9370834891962116E-021
  -89.519999999999996         -4.0303757384567560E-021
  -89.504999999999995         -5.4066600865932941E-021
  -89.489999999999995         -7.0877334293711302E-021
  -89.474999999999994         -9.0724070985565028E-021
  -89.459999999999994         -1.1322628362591272E-020
  -89.444999999999993         -1.3745607590027448E-020
  -89.430000000000007         -1.6171539302950813E-020
  -89.415000000000006         -1.8326611370528542E-020
  -89.400000000000006         -1.9801130282651071E-020
  -89.385000000000005         -2.0012841667437763E-020
  -89.370000000000005         -1.8165703738754237E-020
  -89.355000000000004         -1.3204706594219494E-020
  -89.340000000000003         -3.7675750456317605E-021
  -89.325000000000003          1.1865459177230661E-020
  -89.310000000000002          3.5822345665141710E-020
  -89.295000000000002          7.0688548090354546E-020
  -89.280000000000001          1.1955293092017194E-019
  -89.265000000000001          1.8604780901420188E-019
  -89.250000000000000          2.7438051377357318E-019
  -89.234999999999999          3.8935357828658628E-019
  -89.219999999999999          5.3637027556140827E-019
  -89.204999999999998          7.2142241761203773E-019
  -89.189999999999998          9.5105618255924859E-019
  -89.174999999999997          1.2323126868734571E-018
  -89.159999999999997          1.5726386757179602E-018
  -89.144999999999996          1.9797624975558407E-018
  -89.129999999999995          2.4615304774850470E-018
  -89.114999999999995          3.0256997084949483E-018
  -89.099999999999994          3.6796782133564164E-018
  -89.084999999999994          4.4302110295793617E-018
  -89.069999999999993          5.2830023946679499E-018
  -89.055000000000007          6.2422717569268141E-018
  -89.040000000000006          7.3102359603975963E-018
  -89.025000000000006          8.4865140884082159E-018
  -89.010000000000005          9.7674562065057827E-018
  -88.995000000000005          1.1145395177592543E-017
  -88.980000000000004          1.2607824030806694E-017
  -88.965000000000003          1.4136506742363892E-017
  -88.950000000000003          1.5706548484548742E-017
  -88.935000000000002          1.7285424515675659E-017
  -88.920000000000002          1.8832014033133405E-017
  -88.905000000000001          2.0295673731099035E-017
  -88.890000000000001          2.1615384150145737E-017
  -88.875000000000000          2.2719021758303788E-017
  -88.859999999999999          2.3522829555468517E-017
  -88.844999999999999          2.3931139140714492E-017
  -88.829999999999998          2.3836418688771045E-017
  -88.814999999999998          2.3119714664469375E-017
  -88.799999999999997          2.1651568338861257E-017
  -88.784999999999997          1.9293469972735912E-017
  -88.769999999999996          1.5899910224539138E-017
  -88.754999999999995          1.1321068487364104E-017
  -88.739999999999995          5.4061840635378154E-018
  -88.724999999999994         -1.9924018173156510E-018
  -88.709999999999994         -1.1014536859047879E-017
  -88.694999999999993         -2.1786943063550460E-017
  -88.680000000000007         -3.4417367323053328E-017
  -88.665000000000006         -4.8988329175464772E-017
  -88.650000000000006         -6.5550609238589422E-017
  -88.635000000000005         -8.4116664852452327E-017
  -88.620000000000005         -1.0465421612082922E-016
  -88.605000000000004         -1.2708020749277487E-016
  -88.590000000000003         -1.5125542777991906E-016
  -88.575000000000003         -1.7698013602538738E-016
  -88.560000000000002         -2.0399081233835514E-016
  -88.545000000000002         -2.3195849029793245E-016
  -88.530000000000001         -2.6048873048338463E-016
  -88.515000000000001         -2.8912368511694111E-016
  -88.500000000000000         -3.1734605529584595E-016
  -88.484999999999999         -3.4458541726968257E-016
  -88.469999999999999         -3.7022671923962595E-016
  -88.454999999999998         -3.9362084280050366E-016
  -88.439999999999998         -4.1409730843500474E-016
  -88.424999999999997         -4.3097859566444414E-016
  -88.409999999999997         -4.4359591903740539E-016
  -88.394999999999996         -4.5130598350022846E-016
  -88.379999999999995         -4.5350832210264884E-016
  -88.364999999999995         -4.4966221018696308E-016
  -88.349999999999994         -4.3930312959094100E-016
  -88.334999999999994         -4.2205785642219866E-016
  -88.319999999999993         -3.9765724596174602E-016
  -88.305000000000007         -3.6594647646869276E-016
  -88.290000000000006         -3.2689195779272431E-016
  -88.275000000000006         -2.8058445480809489E-016
  -88.260000000000005         -2.2723800215266384E-016
  -88.245000000000005         -1.6718419999039140E-016
  -88.230000000000004         -1.0086214226020032E-016
  -88.215000000000003         -2.8803543968562145E-017
  -88.200000000000003          4.8386267420979275E-017
  -88.185000000000002          1.3005130790416734E-016
  -88.170000000000002          2.1551106922594447E-016
  -88.155000000000001          3.0408906322903009E-016
  -88.140000000000001          3.9514282865782163E-016
  -88.125000000000000          4.8809394788846281E-016
  -88.109999999999999          5.8245728280041371E-016
  -88.094999999999999          6.7786770925384854E-016
  -88.079999999999998          7.7410282816055384E-016
  -88.064999999999998          8.7110080611538005E-016
  -88.049999999999997          9.6897149270367420E-016
  -88.034999999999997          1.0679995968748321E-015
  -88.019999999999996          1.1686397106237334E-015
  -88.004999999999995          1.2715005330020987E-015
  -87.989999999999995          1.3773203591025784E-015
  -87.974999999999994          1.4869308694002580E-015
  -87.959999999999994          1.6012113899735057E-015
  -87.944999999999993          1.7210335177250463E-015
  -87.930000000000007          1.8471965341197326E-015
  -87.915000000000006          1.9803554073840289E-015
  -87.900000000000006          2.1209440301451664E-015
  -87.885000000000005          2.2690943277846798E-015
  -87.870000000000005          2.4245547315172346E-015
  -87.855000000000004          2.5866105572935850E-015
  -87.840000000000003          2.7540109492088733E-015
  -87.825000000000003          2.9249021756580333E-015
  -87.810000000000002          3.0967755368095347E-015
  -87.795000000000002          3.2664292481227562E-015
  -87.780000000000001          3.4299500173813830E-015
  -87.765000000000001          3.5827155857922482E-015
  -87.750000000000000          3.7194233153473033E-015
  -87.734999999999999          3.8341446106904785E-015
  -87.719999999999999          3.9204085636212246E-015
  -87.704999999999998          3.9713131261688399E-015
  -87.689999999999998          3.9796686826770299E-015
  -87.674999999999997          3.9381653388109901E-015
  -87.659999999999997          3.8395715507835368E-015
  -87.644999999999996          3.6769505422731309E-015
  -87.629999999999995          3.4438985324402932E-015
  -87.614999999999995          3.1347954576799912E-015
  -87.599999999999994          2.7450628931540788E-015
  -87.584999999999994          2.2714207037743137E-015
  -87.569999999999993          1.7121349072185478E-015
  -87.555000000000007          1.0672493374418016E-015
  -87.540000000000006          3.3879001784456865E-016
  -87.525000000000006         -4.6906709973384866E-016
  -87.510000000000005         -1.3498729976006317E-015
  -87.495000000000005         -2.2948365060846852E-015
  -87.480000000000004         -3.2928170772868063E-015
  -87.465000000000003         -4.3303869096524093E-015
  -87.450000000000003         -5.3919669496991195E-015
  -87.435000000000002         -6.4600394972865339E-015
  -87.420000000000002         -7.5154421260489185E-015
  -87.405000000000001         -8.5377388955843424E-015
  -87.390000000000001         -9.5056629261696182E-015
  -87.375000000000000         -1.0397632665341654E-014
  -87.359999999999999         -1.1192321517554480E-014
  -87.344999999999999         -1.1869279566362537E-014
  -87.329999999999998         -1.2409587483855952E-014
  -87.314999999999998         -1.2796521451524136E-014
  -87.299999999999997         -1.3016223163317062E-014
  -87.284999999999997         -1.3058340182553387E-014
  -87.269999999999996         -1.2916622253115323E-014
  -87.254999999999995         -1.2589453236139508E-014
  -87.239999999999995         -1.2080292414182528E-014
  -87.224999999999994         -1.1398003140004453E-014
  -87.209999999999994         -1.0557052736344386E-014
  -87.194999999999993         -9.5775658589961413E-015
  -87.180000000000007         -8.4852160765909977E-015
  -87.165000000000006         -7.3109446556592073E-015
  -87.150000000000006         -6.0905027393220058E-015
  -87.135000000000005         -4.8638139549988038E-015
  -87.120000000000005         -3.6741621098107698E-015
  -87.105000000000004         -2.5672156203838297E-015
  -87.090000000000003         -1.5899031824903056E-015
  -87.075000000000003         -7.8915984464962390E-016
  -87.060000000000002         -2.1057362153217054E-016
  -87.045000000000002          1.0303869929728865E-016
  -87.030000000000001          1.1308926137716316E-016
  -87.015000000000001         -2.1332789474395571E-016
  -87.000000000000000         -9.0203047888216684E-016
  -86.984999999999999         -1.9704313576157607E-015
  -86.969999999999999         -3.4263545742785253E-015
  -86.954999999999998         -5.2670266253637948E-015
  -86.939999999999998         -7.4782802495540306E-015
  -86.924999999999997         -1.0034014126579591E-014
  -86.909999999999997         -1.2895924156016217E-014
  -86.894999999999996         -1.6013549197064179E-014
  -86.879999999999995         -1.9324639951396813E-014
  -86.864999999999995         -2.2755846753913685E-014
  -86.849999999999994         -2.6223760576232769E-014
  -86.834999999999994         -2.9636253032813004E-014
  -86.819999999999993         -3.2894141647728595E-014
  -86.805000000000007         -3.5893116007591069E-014
  -86.790000000000006         -3.8525897695564776E-014
  -86.775000000000006         -4.0684611983619196E-014
  -86.760000000000005         -4.2263281497525659E-014
  -86.745000000000005         -4.3160384256358056E-014
  -86.730000000000004         -4.3281448981443219E-014
  -86.715000000000003         -4.2541589418939110E-014
  -86.700000000000003         -4.0867892972746081E-014
  -86.685000000000002         -3.8201629766433307E-014
  -86.670000000000002         -3.4500214371544630E-014
  -86.655000000000001         -2.9738808393934765E-014
  -86.640000000000001         -2.3911591023190182E-014
  -86.625000000000000         -1.7032573878324360E-014
  -86.609999999999999         -9.1359906429335294E-015
  -86.594999999999999         -2.7618658033661176E-016
  -86.579999999999998          9.4729657603397077E-015
  -86.564999999999998          2.0019135817377770E-014
  -86.549999999999997          3.1253055970004856E-014
  -86.534999999999997          4.3050486813649494E-014
  -86.519999999999996          5.5274537659640022E-014
  -86.504999999999995          6.7778309278000021E-014
  -86.489999999999995          8.0407794138259714E-014
  -86.474999999999994          9.3004935892461449E-014
  -86.459999999999994          1.0541072951574665E-013
  -86.444999999999993          1.1746831805881097E-013
  -86.430000000000007          1.2902598098014223E-013
  -86.415000000000006          1.3993989886156022E-013
  -86.400000000000006          1.5007663352068629E-013
  -86.385000000000005          1.5931516089001674E-013
  -86.370000000000005          1.6754848376765441E-013
  -86.355000000000004          1.7468482443969841E-013
  -86.340000000000003          1.8064811257122171E-013
  -86.325000000000003          1.8537799875879835E-013
  -86.310000000000002          1.8882932598194430E-013
  -86.295000000000002          1.9097099119083638E-013
  -86.280000000000001          1.9178437321316216E-013
  -86.265000000000001          1.9126129987504653E-013
  -86.250000000000000          1.8940167630879939E-013
  -86.234999999999999          1.8621093707781033E-013
  -86.219999999999999          1.8169732211859024E-013
  -86.204999999999998          1.7586919334039441E-013
  -86.189999999999998          1.6873251385517152E-013
  -86.174999999999997          1.6028870667827294E-013
  -86.159999999999997          1.5053279803223241E-013
  -86.144999999999996          1.3945229248701202E-013
  -86.129999999999995          1.2702664441144318E-013
  -86.114999999999995          1.1322750869497897E-013
  -86.099999999999994          9.8019906265029572E-014
  -86.084999999999994          8.1364223084717802E-014
  -86.069999999999993          6.3219144275008382E-014
  -86.055000000000007          4.3545411552861971E-014
  -86.040000000000006          2.2310444642995378E-014
  -86.025000000000006         -5.0639637111493771E-016
  -86.010000000000005         -2.4907972819704360E-014
  -85.995000000000005         -5.0873171506590070E-014
  -85.980000000000004         -7.8350540844759203E-014
  -85.965000000000003         -1.0725205039406951E-013
  -85.950000000000003         -1.3744715543669017E-013
  -85.935000000000002         -1.6875751826777446E-013
  -85.920000000000002         -2.0095259007160693E-013
  -85.905000000000001         -2.3374648028783029E-013
  -85.890000000000001         -2.6679613379654299E-013
  -85.875000000000000         -2.9970126315566337E-013
  -85.859999999999999         -3.3200620529715008E-013
  -85.844999999999999         -3.6320374333966010E-013
  -85.829999999999998         -3.9274123233082325E-013
  -85.814999999999998         -4.2002867655342724E-013
  -85.799999999999997         -4.4444921918143643E-013
  -85.784999999999997         -4.6537166481508407E-013
  -85.769999999999996         -4.8216492647482068E-013
  -85.754999999999995         -4.9421399047830383E-013
  -85.739999999999995         -5.0093756183075544E-013
  -85.724999999999994         -5.0180649566189395E-013
  -85.709999999999994         -4.9636271655384423E-013
  -85.694999999999993         -4.8423830049937333E-013
  -85.680000000000007         -4.6517390633882272E-013
  -85.665000000000006         -4.3903623141508530E-013
  -85.650000000000006         -4.0583381382026940E-013
  -85.635000000000005         -3.6573028676725738E-013
  -85.620000000000005         -3.1905519350637623E-013
  -85.605000000000004         -2.6631106174457297E-013
  -85.590000000000003         -2.0817677822467656E-013
  -85.575000000000003         -1.4550676202124135E-013
  -85.560000000000002         -7.9325408004413123E-014
  -85.545000000000002         -1.0816819953575387E-014
  -85.530000000000001          5.8690411471745696E-014
  -85.515000000000001          1.2774324783734747E-013
  -85.500000000000000          1.9478898203618977E-013
  -85.484999999999999          2.5820437368068161E-013
  -85.469999999999999          3.1632888582849850E-013
  -85.454999999999998          3.6750097865030640E-013
  -85.439999999999998          4.1009754728378589E-013
  -85.424999999999997          4.4257487757069780E-013
  -85.409999999999997          4.6351063178601271E-013
  -85.394999999999996          4.7164583436704044E-013
  -85.379999999999995          4.6592580054544142E-013
  -85.364999999999995          4.4553867973445849E-013
  -85.349999999999994          4.0995093604501154E-013
  -85.334999999999994          3.5893824804761332E-013
  -85.319999999999993          2.9261125857396597E-013
  -85.305000000000007          2.1143477864794119E-013
  -85.290000000000006          1.1624009318023792E-013
  -85.275000000000006          8.2292334025683284E-015
  -85.260000000000005         -1.1102891609576782E-013
  -85.245000000000005         -2.3961128220451045E-013
  -85.230000000000004         -3.7526199595655507E-013
  -85.215000000000003         -5.1542255706527040E-013
  -85.200000000000003         -6.5727035359480768E-013
  -85.185000000000002         -7.9776512002319167E-013
  -85.170000000000002         -9.3370255103975008E-013
  -85.155000000000001         -1.0617737158241658E-012
  -85.140000000000001         -1.1786303270172604E-012
  -85.125000000000000         -1.2809528828275352E-012
  -85.109999999999999         -1.3655218449037942E-012
  -85.094999999999999         -1.4292885451572257E-012
  -85.079999999999998         -1.4694466346845680E-012
  -85.064999999999998         -1.4834994127230217E-012
  -85.049999999999997         -1.4693241198390772E-012
  -85.034999999999997         -1.4252300511649607E-012
  -85.019999999999996         -1.3500090802198716E-012
  -85.004999999999995         -1.2429782680553614E-012
  -84.989999999999995         -1.1040120640598561E-012
  -84.974999999999994         -9.3356442368297543E-013
  -84.959999999999994         -7.3267818678432461E-013
  -84.944999999999993         -5.0298426448186495E-013
  -84.930000000000007         -2.4668724636807415E-013
  -84.915000000000006          3.3460149391874652E-014
  -84.900000000000006          3.3419453185704051E-013
  -84.885000000000005          6.5179009108365382E-013
  -84.870000000000005          9.8211694853078679E-013
  -84.855000000000004          1.3207080828275819E-012
  -84.840000000000003          1.6628336077864625E-012
  -84.825000000000003          2.0035808949436795E-012
  -84.810000000000002          2.3379384365973532E-012
  -84.795000000000002          2.6608823651408375E-012
  -84.780000000000001          2.9674619966141291E-012
  -84.765000000000001          3.2528858079361456E-012
  -84.750000000000000          3.5126018847059237E-012
  -84.734999999999999          3.7423744658759972E-012
  -84.719999999999999          3.9383531158510010E-012
  -84.704999999999998          4.0971345240115031E-012
  -84.689999999999998          4.2158143295778494E-012
  -84.674999999999997          4.2920281044522834E-012
  -84.659999999999997          4.3239847466458592E-012
  -84.644999999999996          4.3104846948749387E-012
  -84.629999999999995          4.2509303369020479E-012
  -84.614999999999995          4.1453234074506629E-012
  -84.599999999999994          3.9942524114600086E-012
  -84.584999999999994          3.7988739758076928E-012
  -84.569999999999993          3.5608796727232273E-012
  -84.555000000000007          3.2824621926802466E-012
  -84.540000000000006          2.9662702415861331E-012
  -84.525000000000006          2.6153625706099026E-012
  -84.510000000000005          2.2331578860418366E-012
  -84.495000000000005          1.8233832412700712E-012
  -84.480000000000004          1.3900225371774044E-012
  -84.465000000000003          9.3726643200092719E-013
  -84.450000000000003          4.6946479906675997E-013
  -84.435000000000002         -8.9180761706593101E-015
  -84.420000000000002         -4.9334380981466697E-013
  -84.405000000000001         -9.7923611493827556E-013
  -84.390000000000001         -1.4620122603878349E-012
  -84.375000000000000         -1.9371099776316347E-012
  -84.359999999999999         -2.4000107456956243E-012
  -84.344999999999999         -2.8462601199541471E-012
  -84.329999999999998         -3.2714842120029619E-012
  -84.314999999999998         -3.6714060611120480E-012
  -84.299999999999997         -4.0418610298964541E-012
  -84.284999999999997         -4.3788145852319271E-012
  -84.269999999999996         -4.6783805128514100E-012
  -84.254999999999995         -4.9368439024310984E-012
  -84.239999999999995         -5.1506893368469253E-012
  -84.224999999999994         -5.3166351529632117E-012
  -84.209999999999994         -5.4316720392300066E-012
  -84.194999999999993         -5.4931103068978082E-012
  -84.180000000000007         -5.4986354011687943E-012
  -84.165000000000006         -5.4463655807523992E-012
  -84.150000000000006         -5.3349204394426142E-012
  -84.135000000000005         -5.1634920297805031E-012
  -84.120000000000005         -4.9319190224828002E-012
  -84.105000000000004         -4.6407617332322459E-012
  -84.090000000000003         -4.2913758484253162E-012
  -84.075000000000003         -3.8859848498773442E-012
  -84.060000000000002         -3.4277413806654833E-012
  -84.045000000000002         -2.9207816720777657E-012
  -84.030000000000001         -2.3702656590934845E-012
  -84.015000000000001         -1.7824002907299019E-012
  -84.000000000000000         -1.1644444089520256E-012
  -83.984999999999999         -5.2469053407611099E-013
  -83.969999999999999          1.2757775792824472E-013
  -83.954999999999998          7.8215521082461437E-013
  -83.939999999999998          1.4280120055193413E-012
  -83.924999999999997          2.0534203677702312E-012
  -83.909999999999997          2.6461092431789845E-012
  -83.894999999999996          3.1934472427552762E-012
  -83.879999999999995          3.6826514060450677E-012
  -83.864999999999995          4.1010207382785602E-012
  -83.849999999999994          4.4361883957955150E-012
  -83.834999999999994          4.6763899176627266E-012
  -83.819999999999993          4.8107438171962613E-012
  -83.805000000000007          4.8295365102923871E-012
  -83.790000000000006          4.7245046416732883E-012
  -83.775000000000006          4.4891104722388775E-012
  -83.760000000000005          4.1188033886307984E-012
  -83.745000000000005          3.6112556087847247E-012
  -83.730000000000004          2.9665725171518220E-012
  -83.715000000000003          2.1874631012802626E-012
  -83.700000000000003          1.2793694055546201E-012
  -83.685000000000002          2.5054692478695961E-013
  -83.670000000000002         -8.8790932072091433E-013
  -83.655000000000001         -2.1220959017798080E-012
  -83.640000000000001         -3.4353923785562790E-012
  -83.625000000000000         -4.8086157451721068E-012
  -83.609999999999999         -6.2202361317265087E-012
  -83.594999999999999         -7.6466541432118618E-012
  -83.579999999999998         -9.0625354443041317E-012
  -83.564999999999998         -1.0441201722666271E-011
  -83.549999999999997         -1.1755065670859821E-011
  -83.534999999999997         -1.2976109770024280E-011
  -83.519999999999996         -1.4076398900664255E-011
  -83.504999999999995         -1.5028612035394850E-011
  -83.489999999999995         -1.5806590411560073E-011
  -83.474999999999994         -1.6385880499680816E-011
  -83.459999999999994         -1.6744281308711528E-011
  -83.444999999999993         -1.6862348323209986E-011
  -83.430000000000007         -1.6723884430080993E-011
  -83.415000000000006         -1.6316375334168853E-011
  -83.400000000000006         -1.5631364258528180E-011
  -83.385000000000005         -1.4664776337713903E-011
  -83.370000000000005         -1.3417149336003575E-011
  -83.355000000000004         -1.1893801915574542E-011
  -83.340000000000003         -1.0104900423357766E-011
  -83.325000000000003         -8.0654389417178507E-012
  -83.310000000000002         -5.7951278324697153E-012
  -83.295000000000002         -3.3181840521784300E-012
  -83.280000000000001         -6.6303570706721660E-013
  -83.265000000000001          2.1380644650570435E-012
  -83.250000000000000          5.0495068196210191E-012
  -83.234999999999999          8.0328634369242202E-012
  -83.219999999999999          1.1047495383775807E-011
  -83.204999999999998          1.4051208981069596E-011
  -83.189999999999998          1.7000952728940533E-011
  -83.174999999999997          1.9853544155901126E-011
  -83.159999999999997          2.2566407076318740E-011
  -83.144999999999996          2.5098310582616357E-011
  -83.129999999999995          2.7410084618706421E-011
  -83.114999999999995          2.9465319073551655E-011
  -83.099999999999994          3.1231003894127696E-011
  -83.084999999999994          3.2678124095575356E-011
  -83.069999999999993          3.3782174974072987E-011
  -83.055000000000007          3.4523609665493282E-011
  -83.040000000000006          3.4888199967886280E-011
  -83.025000000000006          3.4867293080553807E-011
  -83.010000000000005          3.4457974668056224E-011
  -82.995000000000005          3.3663138249151459E-011
  -82.980000000000004          3.2491443563431588E-011
  -82.965000000000003          3.0957174323997805E-011
  -82.950000000000003          2.9080012703408542E-011
  -82.935000000000002          2.6884708001495561E-011
  -82.920000000000002          2.4400672454794048E-011
  -82.905000000000001          2.1661497248692818E-011
  -82.890000000000001          1.8704406079539382E-011
  -82.875000000000000          1.5569654940317257E-011
  -82.859999999999999          1.2299892007683333E-011
  -82.844999999999999          8.9394863039826689E-012
  -82.829999999999998          5.5338424814754816E-012
  -82.814999999999998          2.1287106192341421E-012
  -82.799999999999997         -1.2304951979222323E-012
  -82.784999999999997         -4.4993583511732105E-012
  -82.769999999999996         -7.6350939459679523E-012
  -82.754999999999995         -1.0597140352730516E-011
  -82.739999999999995         -1.3347703151089796E-011
  -82.724999999999994         -1.5852251802894735E-011
  -82.709999999999994         -1.8079943792104203E-011
  -82.694999999999993         -2.0004005396589974E-011
  -82.680000000000007         -2.1602029193212857E-011
  -82.665000000000006         -2.2856209980215425E-011
  -82.650000000000006         -2.3753523453740044E-011
  -82.635000000000005         -2.4285830291237431E-011
  -82.620000000000005         -2.4449926458447457E-011
  -82.605000000000004         -2.4247527596887863E-011
  -82.590000000000003         -2.3685206573809126E-011
  -82.575000000000003         -2.2774275520998088E-011
  -82.560000000000002         -2.1530627974941652E-011
  -82.545000000000002         -1.9974530710009653E-011
  -82.530000000000001         -1.8130389550785608E-011
  -82.515000000000001         -1.6026482224651417E-011
  -82.500000000000000         -1.3694650448370371E-011
  -82.484999999999999         -1.1169979871605840E-011
  -82.469999999999999         -8.4904539995878103E-012
  -82.454999999999998         -5.6965781917994729E-012
  -82.439999999999998         -2.8309954207272892E-012
  -82.424999999999997          6.1924200305246008E-014
  -82.409999999999997          2.9365112771961854E-012
  -82.394999999999996          5.7462433249166889E-012
  -82.379999999999995          8.4442080064417446E-012
  -82.364999999999995          1.0983591640367774E-011
  -82.349999999999994          1.3318177290166933E-011
  -82.334999999999994          1.5402869951719467E-011
  -82.319999999999993          1.7194230414463441E-011
  -82.305000000000007          1.8651028638183575E-011
  -82.290000000000006          1.9734812742311370E-011
  -82.275000000000006          2.0410471923693052E-011
  -82.260000000000005          2.0646821058400988E-011
  -82.245000000000005          2.0417162752139895E-011
  -82.230000000000004          1.9699849390653057E-011
  -82.215000000000003          1.8478822638723358E-011
  -82.200000000000003          1.6744116509981311E-011
  -82.185000000000002          1.4492321405434883E-011
  -82.170000000000002          1.1727002181827206E-011
  -82.155000000000001          8.4590390247996083E-012
  -82.140000000000001          4.7068984994347307E-012
  -82.125000000000000          4.9680984152977725E-013
  -82.109999999999999         -4.1371563293257640E-012
  -82.094999999999999         -9.1531227042196406E-012
  -82.079999999999998         -1.4501560542667935E-011
  -82.064999999999998         -2.0125576552509905E-011
  -82.049999999999997         -2.5961337246638294E-011
  -82.034999999999997         -3.1938614947213395E-011
  -82.019999999999996         -3.7981503359096891E-011
  -82.004999999999995         -4.4009230287800349E-011
  -81.989999999999995         -4.9937134288802199E-011
  -81.974999999999994         -5.5677743665549784E-011
  -81.960000000000008         -6.1141980367551696E-011
  -81.944999999999993         -6.6240436746856091E-011
  -81.930000000000007         -7.0884756397937565E-011
  -81.915000000000006         -7.4989056630947459E-011
  -81.900000000000006         -7.8471382169986725E-011
  -81.885000000000005         -8.1255148443037939E-011
  -81.870000000000005         -8.3270633444154640E-011
  -81.855000000000004         -8.4456323878878692E-011
  -81.840000000000003         -8.4760254370763732E-011