  -90.000000000000000          0.0000000000000000     
  -89.984999999999999          0.0000000000000000     
  -89.969999999999999          0.0000000000000000     
  -89.954999999999998          0.0000000000000000     
  -89.939999999999998          0.0000000000000000     
  -89.924999999999997          0.0000000000000000     
  -89.909999999999997          0.0000000000000000     
  -89.894999999999996          0.0000000000000000     
  -89.879999999999995          3.7682776486561992E-034
  -89.864999999999995          6.3286867300425111E-033
  -89.849999999999994          5.6189076657158655E-032
  -89.834999999999994          3.5054689750560827E-031
  -89.819999999999993          1.7239922400572154E-030
  -89.805000000000007          7.1113420947910405E-030
  -89.790000000000006          2.5569810527448190E-029
  -89.775000000000006          8.2260030895175960E-029
  -89.760000000000005          2.4124439224637565E-028
  -89.745000000000005          6.5404205355051374E-028
  -89.730000000000004          1.6569957832549244E-027
  -89.715000000000003          3.9565210849282961E-027
  -89.700000000000003          8.9655451659087283E-027
  -89.685000000000002          1.9389630975068932E-026
  -89.670000000000002          4.0210418951068063E-026
  -89.655000000000001          8.0280124838167327E-026
  -89.640000000000001          1.5482650046839724E-025
  -89.625000000000000          2.8927489951409242E-025
  -89.609999999999999          5.2492229513416181E-025
  -89.594999999999999          9.2714723583012365E-025
  -89.579999999999998          1.5970017681808514E-024
  -89.564999999999998          2.6872004394481428E-024
  -89.549999999999997          4.4236807042811213E-024
  -89.534999999999997          7.1340454525654002E-024
  -89.519999999999996          1.1284279751395689E-023
  -89.504999999999995          1.7525135077441883E-023
  -89.489999999999995          2.6749471813364806E-023
  -89.474999999999994          4.0161568172518476E-023
  -89.459999999999994          5.9358993705720277E-023
  -89.444999999999993          8.6426893956642975E-023
  -89.430000000000007          1.2404364418057278E-022
  -89.415000000000006          1.7559559074079555E-022
  -89.400000000000006          2.4529689170187435E-022
  -89.385000000000005          3.3830896930336163E-022
  -89.370000000000005          4.6085112719137294E-022
  -89.355000000000004          6.2029246218037606E-022
  -89.340000000000003          8.2521146427230223E-022
  -89.325000000000003          1.0854072752793855E-021
  -89.310000000000002          1.4118431180309274E-021
  -89.295000000000002          1.8165009440183447E-021
  -89.280000000000001          2.3121196577923809E-021
  -89.265000000000001          2.9117918765119059E-021
  -89.250000000000000          3.6283869633887251E-021
  -89.234999999999999          4.4737695883857541E-021
  -89.219999999999999          5.4577792829935743E-021
  -89.204999999999998          6.5869397880588442E-021
  -89.189999999999998          7.8628614400572712E-021
  -89.174999999999997          9.2803121600557440E-021
  -89.159999999999997          1.0824918473220803E-020
  -89.144999999999996          1.2470490904318483E-020
  -89.129999999999995          1.4175940225772491E-020
  -89.114999999999995          1.5881783750487169E-020
  -89.099999999999994          1.7506261460377612E-020
  -89.084999999999994          1.8941053084877722E-020
  -89.069999999999993          2.0046667215260073E-020
  -89.055000000000007          2.0647536382097421E-020
  -89.040000000000006          2.0526926340203801E-020
  -89.025000000000006          1.9421777498916010E-020
  -89.010000000000005          1.7017631978493187E-020
  -88.995000000000005          1.2943849856613355E-020
  -88.980000000000004          6.7693900625732565E-021
  -88.965000000000003         -2.0005767011378447E-021
  -88.950000000000003         -1.3926823152074783E-020
  -88.935000000000002         -2.9636579184545064E-020
  -88.920000000000002         -4.9821918705855678E-020
  -88.905000000000001         -7.5235475907027577E-020
  -88.890000000000001         -1.0668293116703595E-019
  -88.875000000000000         -1.4501157269590224E-019
  -88.859999999999999         -1.9109438623259962E-019
  -88.844999999999999         -2.4580891993416733E-019
  -88.829999999999998         -3.1001049147868229E-019
  -88.814999999999998         -3.8449908791605984E-019
  -88.799999999999997         -4.6997946712819516E-019
  -88.784999999999997         -5.6701452552193058E-019
  -88.769999999999996         -6.7597173808439279E-019
  -88.754999999999995         -7.9696256740312331E-019
  -88.739999999999995         -9.2977613412070940E-019
  -88.724999999999994         -1.0738077175105865E-018
  -88.709999999999994         -1.2279834303425077E-018
  -88.694999999999993         -1.3906826190013284E-018
  -88.680000000000007         -1.5596613492803454E-018
  -88.665000000000006         -1.7319788907043561E-018
  -88.650000000000006         -1.9039300945145825E-018
  -88.635000000000005         -2.0709889385918639E-018
  -88.620000000000005         -2.2277655140648049E-018
  -88.605000000000004         -2.3679808996986687E-018
  -88.590000000000003         -2.4844669551002237E-018
  -88.575000000000003         -2.5691905157506613E-018
  -88.560000000000002         -2.6133104684678615E-018
  -88.545000000000002         -2.6072685344786211E-018
  -88.530000000000001         -2.5409181027990582E-018
  -88.515000000000001         -2.4036919411038080E-018
  -88.500000000000000         -2.1848112656258450E-018
  -88.484999999999999         -1.8735332749547901E-018
  -88.469999999999999         -1.4594368375409704E-018
  -88.454999999999998         -9.3274261059247770E-019
  -88.439999999999998         -2.8466004234213450E-019
  -88.424999999999997          4.9224355030294274E-019
  -88.409999999999997          1.4036631507638168E-018
  -88.394999999999996          2.4531749193224958E-018
  -88.379999999999995          3.6418673739663112E-018
  -88.364999999999995          4.9679958873858122E-018
  -88.349999999999994          6.4266792667863233E-018
  -88.334999999999994          8.0096477739938457E-018
  -88.319999999999993          9.7050594913590701E-018
  -88.305000000000007          1.1497397751361421E-017
  -88.290000000000006          1.3367464519164154E-017
  -88.275000000000006          1.5292473450433272E-017
  -88.260000000000005          1.7246254204948822E-017
  -88.245000000000005          1.9199568429598893E-017
  -88.230000000000004          2.1120546509743040E-017
  -88.215000000000003          2.2975221100707387E-017
  -88.200000000000003          2.4728169019939962E-017
  -88.185000000000002          2.6343239165949749E-017
  -88.170000000000002          2.7784341648611058E-017
  -88.155000000000001          2.9016284895943433E-017
  -88.140000000000001          3.0005632613226257E-017
  -88.125000000000000          3.0721540889778651E-017
  -88.109999999999999          3.1136550637986306E-017
  -88.094999999999999          3.1227305586073174E-017
  -88.079999999999998          3.0975157774309860E-017
  -88.064999999999998          3.0366607615099498E-017
  -88.049999999999997          2.9393578516941120E-017
  -88.034999999999997          2.8053489676323562E-017
  -88.019999999999996          2.6349092295964174E-017
  -88.004999999999995          2.4288082464282150E-017
  -87.989999999999995          2.1882437756547257E-017
  -87.974999999999994          1.9147550349597883E-017
  -87.959999999999994          1.6101100401846736E-017
  -87.944999999999993          1.2761746626371174E-017
  -87.930000000000007          9.1476497735197990E-018
  -87.915000000000006          5.2748736907883913E-018
  -87.900000000000006          1.1557326159560275E-018
  -87.885000000000005         -3.2028528443823675E-018
  -87.870000000000005         -7.8009137094997645E-018
  -87.855000000000004         -1.2646821460785506E-017
  -87.840000000000003         -1.7758419624823281E-017
  -87.825000000000003         -2.3163819934730702E-017
  -87.810000000000002         -2.8901756777051791E-017
  -87.795000000000002         -3.5021457324400804E-017
  -87.780000000000001         -4.1581912789342572E-017
  -87.765000000000001         -4.8650521848187916E-017
  -87.750000000000000         -5.6301069011576566E-017
  -87.734999999999999         -6.4610991619733286E-017
  -87.719999999999999         -7.3657952006009455E-017
  -87.704999999999998         -8.3515767768269306E-017
  -87.689999999999998         -9.4249700148120821E-017
  -87.674999999999997         -1.0591123948433420E-016
  -87.659999999999997         -1.1853246714978670E-016
  -87.644999999999996         -1.3212021234761557E-016
  -87.629999999999995         -1.4665004347124842E-016
  -87.614999999999995         -1.6206043151800113E-016
  -87.599999999999994         -1.7824729731447981E-016
  -87.584999999999994         -1.9505906166779536E-016
  -87.569999999999993         -2.1229259548928434E-016
  -87.555000000000007         -2.2969029488386305E-016
  -87.540000000000006         -2.4693842678880236E-016
  -87.525000000000006         -2.6366714220861758E-016
  -87.510000000000005         -2.7945236880430992E-016
  -87.495000000000005         -2.9381950342762095E-016
  -87.480000000000004         -3.0624952664012059E-016
  -87.465000000000003         -3.1618712893554486E-016
  -87.450000000000003         -3.2305116630273849E-016
  -87.435000000000002         -3.2624741865942299E-016
  -87.420000000000002         -3.2518322764031637E-016
  -87.405000000000001         -3.1928427843740061E-016
  -87.390000000000001         -3.0801273159894883E-016
  -87.375000000000000         -2.9088681066643054E-016
  -87.359999999999999         -2.6750083979767015E-016
  -87.344999999999999         -2.3754575784603823E-016
  -87.329999999999998         -2.0082907657427125E-016
  -87.314999999999998         -1.5729381978177656E-016
  -87.299999999999997         -1.0703566910436938E-016
  -87.284999999999997         -5.0317638198339539E-017
  -87.269999999999996          1.2418529537888221E-017
  -87.254999999999995          8.0544852645334051E-017
  -87.239999999999995          1.5324419496562315E-016
  -87.224999999999994          2.2951257678361725E-016
  -87.209999999999994          3.0816707688380632E-016
  -87.194999999999993          3.8785966880041474E-016
  -87.180000000000007          4.6709743049412719E-016
  -87.165000000000006          5.4426890825257199E-016
  -87.150000000000006          6.1767638335165549E-016
  -87.135000000000005          6.8557417382664578E-016
  -87.120000000000005          7.4621162139424583E-016
  -87.105000000000004          7.9788084293499497E-016
  -87.090000000000003          8.3896755247010409E-016
  -87.075000000000003          8.6800405366021832E-016
  -87.060000000000002          8.8372313227668602E-016
  -87.045000000000002          8.8511094282120299E-016
  -87.030000000000001          8.7145772462352933E-016
  -87.015000000000001          8.4240465335138444E-016
  -87.000000000000000          7.9798428683367840E-016
  -86.984999999999999          7.3865412874104695E-016
  -86.969999999999999          6.6532071608528900E-016
  -86.954999999999998          5.7935322468608192E-016
  -86.939999999999998          4.8258537499511287E-016
  -86.924999999999997          3.7730412950018886E-016
  -86.909999999999997          2.6622483760219075E-016
  -86.894999999999996          1.5245253679729560E-016
  -86.879999999999995          3.9429029661385508E-017
  -86.864999999999995         -6.9133638014813917E-017
  -86.849999999999994         -1.6933240789352631E-016
  -86.834999999999994         -2.5716407322585230E-016
  -86.819999999999993         -3.2862580776597426E-016
  -86.805000000000007         -3.7982360253201717E-016
  -86.790000000000006         -4.0708575498609085E-016
  -86.775000000000006         -4.0707895225273322E-016
  -86.760000000000005         -3.7692365288819407E-016
  -86.745000000000005         -3.1430573641079505E-016
  -86.730000000000004         -2.1758087364189915E-016
  -86.715000000000003         -8.5868527510721233E-017
  -86.700000000000003          8.0867810426254354E-017
  -86.685000000000002          2.8175709251422967E-016
  -86.670000000000002          5.1497665605194616E-016
  -86.655000000000001          7.7772998205937437E-016
  -86.640000000000001          1.0662477209816734E-015
  -86.625000000000000          1.3758142286432419E-015
  -86.609999999999999          1.7008185470432304E-015
  -86.594999999999999          2.0348314843537420E-015
  -86.579999999999998          2.3707065177196738E-015
  -86.564999999999998          2.7007039894646079E-015
  -86.549999999999997          3.0166349968127268E-015
  -86.534999999999997          3.3100239163355669E-015
  -86.519999999999996          3.5722826809809170E-015
  -86.504999999999995          3.7948973390794505E-015
  -86.489999999999995          3.9696156721425423E-015
  -86.474999999999994          4.0886382007918748E-015
  -86.459999999999994          4.1447998733266239E-015
  -86.444999999999993          4.1317445545105934E-015
  -86.430000000000007          4.0440817266674568E-015
  -86.415000000000006          3.8775220149523185E-015
  -86.400000000000006          3.6289889957007507E-015
  -86.385000000000005          3.2967011468664409E-015
  -86.370000000000005          2.8802245758221580E-015
  -86.355000000000004          2.3804901717769346E-015
  -86.340000000000003          1.7997777239083055E-015
  -86.325000000000003          1.1416656287810650E-015
  -86.310000000000002          4.1094952224477095E-016
  -86.295000000000002         -3.8647016419000326E-016
  -86.280000000000001         -1.2437254756286829E-015
  -86.265000000000001         -2.1531399642285391E-015
  -86.250000000000000         -3.1064024897715535E-015
  -86.234999999999999         -4.0947503905392618E-015
  -86.219999999999999         -5.1091536600392229E-015
  -86.204999999999998         -6.1404933533195337E-015
  -86.189999999999998         -7.1797273936682546E-015
  -86.174999999999997         -8.2180347799726793E-015
  -86.159999999999997         -9.2469367124307922E-015
  -86.144999999999996         -1.0258376213648310E-014
  -86.129999999999995         -1.1244768950615519E-014
  -86.114999999999995         -1.2199006622839060E-014
  -86.099999999999994         -1.3114421386958147E-014
  -86.084999999999994         -1.3984706235647525E-014
  -86.069999999999993         -1.4803789636741276E-014
  -86.055000000000007         -1.5565682220269363E-014
  -86.040000000000006         -1.6264287890110397E-014
  -86.025000000000006         -1.6893186136524192E-014
  -86.010000000000005         -1.7445414348684317E-014
  -85.995000000000005         -1.7913235727650550E-014
  -85.980000000000004         -1.8287930916263857E-014
  -85.965000000000003         -1.8559603181568518E-014
  -85.950000000000003         -1.8717031031079308E-014
  -85.935000000000002         -1.8747569956959614E-014
  -85.920000000000002         -1.8637121942835337E-014
  -85.905000000000001         -1.8370189673903511E-014
  -85.890000000000001         -1.7930012062203869E-014
  -85.875000000000000         -1.7298801415844070E-014
  -85.859999999999999         -1.6458094110639865E-014
  -85.844999999999999         -1.5389189353181773E-014
  -85.829999999999998         -1.4073712457745007E-014
  -85.814999999999998         -1.2494262826494122E-014
  -85.799999999999997         -1.0635160185509546E-014
  -85.784999999999997         -8.4832602775157875E-015
  -85.769999999999996         -6.0288328115312619E-015
  -85.754999999999995         -3.2664686351548036E-015
  -85.739999999999995         -1.9599712418709989E-016
  -85.724999999999994          3.1766189800000932E-015
  -85.709999999999994          6.8384425726264464E-015
  -85.694999999999993          1.0768811820190908E-014
  -85.680000000000007          1.4938710126777624E-014
  -85.665000000000006          1.9310292907336220E-014
  -85.650000000000006          2.3836606584501548E-014
  -85.635000000000005          2.8461533531452116E-014
  -85.620000000000005          3.3119980960257325E-014
  -85.605000000000004          3.7738340013734883E-014
  -85.590000000000003          4.2235227766312597E-014
  -85.575000000000003          4.6522546015212440E-014
  -85.560000000000002          5.0506806039980062E-014
  -85.545000000000002          5.4090771846402458E-014
  -85.530000000000001          5.7175367684705186E-014
  -85.515000000000001          5.9661802408184084E-014
  -85.500000000000000          6.1453988599302622E-014
  -85.484999999999999          6.2461043010952205E-014
  -85.469999999999999          6.2599929309247598E-014
  -85.454999999999998          6.1798188907748880E-014
  -85.439999999999998          5.9996624367838342E-014
  -85.424999999999997          5.7151901483934453E-014
  -85.409999999999997          5.3239015843434268E-014
  -85.394999999999996          4.8253488336112704E-014
  -85.379999999999995          4.2213272672319765E-014
  -85.364999999999995          3.5160256325363071E-014
  -85.349999999999994          2.7161312546428347E-014
  -85.334999999999994          1.8308823830940832E-014
  -85.319999999999993          8.7206412609838052E-015
  -85.305000000000007         -1.4605853918835707E-015
  -85.290000000000006         -1.2068715167859456E-014
  -85.275000000000006         -2.2916079976545781E-014
  -85.260000000000005         -3.3796113151941809E-014
  -85.245000000000005         -4.4486597294401270E-014
  -85.230000000000004         -5.4753537858179269E-014
  -85.215000000000003         -6.4355557558362642E-014
  -85.200000000000003         -7.3048771892514353E-014
  -85.185000000000002         -8.0592020416155735E-014
  -85.170000000000002         -8.6752443607691215E-014
  -85.155000000000001         -9.1311147824759548E-014
  -85.140000000000001         -9.4068931246957255E-014
  -85.125000000000000         -9.4851921727135552E-014
  -85.109999999999999         -9.3516970697208462E-014
  -85.094999999999999         -8.9956640498146251E-014
  -85.079999999999998         -8.4103676713936926E-014
  -85.064999999999998         -7.5934870641825719E-014
  -85.049999999999997         -6.5474088282134468E-014
  -85.034999999999997         -5.2794415025684063E-014
  -85.019999999999996         -3.8019371993106704E-014
  -85.004999999999995         -2.1323024455063150E-014
  -84.989999999999995         -2.9290176969905051E-015
  -84.974999999999994          1.6891520869749890E-014
  -84.959999999999994          3.7823209326917975E-014
  -84.944999999999993          5.9510739164238963E-014
  -84.930000000000007          8.1564224504223487E-014
  -84.915000000000006          1.0356553261465715E-013
  -84.900000000000006          1.2507545997172964E-013
  -84.885000000000005          1.4564158256138993E-013
  -84.870000000000005          1.6480673976134591E-013
  -84.855000000000004          1.8211782993118875E-013
  -84.840000000000003          1.9713484317174235E-013
  -84.825000000000003          2.0943992796573080E-013
  -84.810000000000002          2.1864618676790265E-013
  -84.795000000000002          2.2440617343955777E-013
  -84.780000000000001          2.2641968595166206E-013
  -84.765000000000001          2.2444098988182171E-013
  -84.750000000000000          2.1828482218381323E-013
  -84.734999999999999          2.0783158180548433E-013
  -84.719999999999999          1.9303113794888471E-013
  -84.704999999999998          1.7390544570800720E-013
  -84.689999999999998          1.5054973869117749E-013
  -84.674999999999997          1.2313239349578259E-013
  -84.659999999999997          9.1893310181275639E-014
  -84.644999999999996          5.7141018804628130E-014
  -84.629999999999995          1.9248498465702230E-014
  -84.614999999999995         -2.1352216598557322E-014
  -84.599999999999994         -6.4176460911995192E-014
  -84.584999999999994         -1.0869429678149120E-013
  -84.569999999999993         -1.5433856449809102E-013
  -84.555000000000007         -2.0051347463922314E-013
  -84.540000000000006         -2.4660365438057552E-013
  -84.525000000000006         -2.9198312604533649E-013
  -84.510000000000005         -3.3602452959892448E-013
  -84.495000000000005         -3.7810794534416658E-013
  -84.480000000000004         -4.1762920162044526E-013
  -84.465000000000003         -4.5400787079472038E-013
  -84.450000000000003         -4.8669456052113924E-013
  -84.435000000000002         -5.1517725632374556E-013
  -84.420000000000002         -5.3898676971239623E-013
  -84.405000000000001         -5.5770172551275476E-013
  -84.390000000000001         -5.7095203131324324E-013
  -84.375000000000000         -5.7842213007155974E-013
  -84.359999999999999         -5.7985289746848023E-013
  -84.344999999999999         -5.7504299716057417E-013
  -84.329999999999998         -5.6384985656215969E-013
  -84.314999999999998         -5.4618961263519505E-013
  -84.299999999999997         -5.2203727451960447E-013
  -84.284999999999997         -4.9142628985240910E-013
  -84.269999999999996         -4.5444808398180381E-013
  -84.254999999999995         -4.1125159918123377E-013
  -84.239999999999995         -3.6204315912412299E-013
  -84.224999999999994         -3.0708630625354838E-013
  -84.209999999999994         -2.4670209993783720E-013
  -84.194999999999993         -1.8126972633428912E-013
  -84.180000000000007         -1.1122719634432468E-013
  -84.165000000000006         -3.7072545012138691E-014
  -84.150000000000006          4.0635019898623351E-014
  -84.135000000000005          1.2127389478928940E-013
  -84.120000000000005          2.0415906378662418E-013
  -84.105000000000004          2.8854146177405282E-013
  -84.090000000000003          3.7360796422726550E-013
  -84.075000000000003          4.5848226474035081E-013
  -84.060000000000002          5.4222696211497778E-013
  -84.045000000000002          6.2384705691240216E-013
  -84.030000000000001          7.0229493878345983E-013
  -84.015000000000001          7.7647767772817677E-013
  -84.000000000000000          8.4526618560412659E-013
  -83.984999999999999          9.0750649182902432E-013
  -83.969999999999999          9.6203405484940330E-013
  -83.954999999999998          1.0076898083327679E-012
  -83.939999999999998          1.0433385926045258E-012
  -83.924999999999997          1.0678901339600255E-012
  -83.909999999999997          1.0803221381708306E-012
  -83.894999999999996          1.0797041429325138E-012
  -83.879999999999995          1.0652238639774492E-012
  -83.864999999999995          1.0362133243471683E-012
  -83.849999999999994          9.9217552576580381E-013
  -83.834999999999994          9.3281057791244626E-013
  -83.819999999999993          8.5804063507111117E-013
  -83.805000000000007          7.6803288121679580E-013
  -83.790000000000006          6.6321958775567014E-013
  -83.775000000000006          5.4431481023853312E-013
  -83.760000000000005          4.1232682958074196E-013
  -83.745000000000005          2.6856517227127896E-013
  -83.730000000000004          1.1464238575380897E-013
  -83.715000000000003         -4.7530854035623959E-014
  -83.700000000000003         -2.1575719455404346E-013
  -83.685000000000002         -3.8757126848143475E-013
  -83.670000000000002         -5.6026548417992261E-013
  -83.655000000000001         -7.3092318872772233E-013
  -83.640000000000001         -8.9645928484302639E-013
  -83.625000000000000         -1.0536667024996227E-012
  -83.609999999999999         -1.1992702837748670E-012
  -83.594999999999999         -1.3299849502962369E-012
  -83.579999999999998         -1.4425795627492910E-012
  -83.564999999999998         -1.5339430030000822E-012
  -83.549999999999997         -1.6011534546139794E-012
  -83.534999999999997         -1.6415482254755753E-012
  -83.519999999999996         -1.6527920525255535E-012
  -83.504999999999995         -1.6329445391358166E-012
  -83.489999999999995         -1.5805221714737527E-012
  -83.474999999999994         -1.4945562148982461E-012
  -83.459999999999994         -1.3746421535787423E-012
  -83.444999999999993         -1.2209815406991065E-012
  -83.430000000000007         -1.0344134403206251E-012
  -83.415000000000006         -8.1643453933230581E-013
  -83.400000000000006         -5.6920717054695369E-013
  -83.385000000000005         -2.9555418984590631E-013
  -83.370000000000005          1.0596653220694419E-015
  -83.355000000000004          3.1656057983275865E-013
  -83.340000000000003          6.4631188855662769E-013
  -83.325000000000003          9.8517407339654417E-013
  -83.310000000000002          1.3275776962126673E-012
  -83.295000000000002          1.6676075667923507E-012
  -83.280000000000001          1.9990981526413210E-012
  -83.265000000000001          2.3157374455518021E-012
  -83.250000000000000          2.6111786344262811E-012
  -83.234999999999999          2.8791556812290953E-012
  -83.219999999999999          3.1136029084860573E-012
  -83.204999999999998          3.3087746952042973E-012
  -83.189999999999998          3.4593632212281955E-012
  -83.174999999999997          3.5606125253079268E-012
  -83.159999999999997          3.6084236727101926E-012
  -83.144999999999996          3.5994534176159165E-012
  -83.129999999999995          3.5311994214110021E-012
  -83.114999999999995          3.4020731110723235E-012
  -83.099999999999994          3.2114573587233020E-012
  -83.084999999999994          2.9597463802738533E-012
  -83.069999999999993          2.6483691541873133E-012
  -83.055000000000007          2.2797928909273901E-012
  -83.040000000000006          1.8575091551703560E-012
  -83.025000000000006          1.3859984123940072E-012
  -83.010000000000005          8.7067869190479708E-013
  -82.995000000000005          3.1783397528434287E-013
  -82.980000000000004         -2.6547302767535030E-013
  -82.965000000000003         -8.7150366133784130E-013
  -82.950000000000003         -1.4919595506951433E-012
  -82.935000000000002         -2.1181101577533168E-012
  -82.920000000000002         -2.7409296620567458E-012
  -82.905000000000001         -3.3512389911727336E-012
  -82.890000000000001         -3.9398532179768520E-012
  -82.875000000000000         -4.4977290121483993E-012
  -82.859999999999999         -5.0161112243041206E-012
  -82.844999999999999         -5.4866740491210653E-012
  -82.829999999999998         -5.9016554664059750E-012
  -82.814999999999998         -6.2539830085472925E-012
  -82.799999999999997         -6.5373886859454444E-012
  -82.784999999999997         -6.7465087336127105E-012
  -82.769999999999996         -6.8769694799852843E-012
  -82.754999999999995         -6.9254576032240500E-012
  -82.739999999999995         -6.8897726065997311E-012
  -82.724999999999994         -6.7688615129624097E-012
  -82.709999999999994         -6.5628375130188932E-012
  -82.694999999999993         -6.2729777969283695E-012
  -82.680000000000007         -5.9017083754719923E-012
  -82.665000000000006         -5.4525685182216233E-012
  -82.650000000000006         -4.9301647833677187E-012
  -82.635000000000005         -4.3401059655889807E-012
  -82.620000000000005         -3.6889293703046278E-012
  -82.605000000000004         -2.9840138606601618E-012
  -82.590000000000003         -2.2334866161405342E-012
  -82.575000000000003         -1.4461195912626734E-012
  -82.560000000000002         -6.3122190850986581E-013
  -82.545000000000002          2.0147246501331373E-013
  -82.530000000000001          1.0419194803809595E-012
  -82.515000000000001          1.8798805827974219E-012
  -82.500000000000000          2.7050380164983512E-012
  -82.484999999999999          3.5071104007022846E-012
  -82.469999999999999          4.2759636977030002E-012
  -82.454999999999998          5.0017212593900240E-012
  -82.439999999999998          5.6748698622210991E-012
  -82.424999999999997          6.2863624895881376E-012
  -82.409999999999997          6.8277159100127438E-012
  -82.394999999999996          7.2911060869373934E-012
  -82.379999999999995          7.6694544812183629E-012
  -82.364999999999995          7.9565199914699569E-012
  -82.349999999999994          8.1469735471739746E-012
  -82.334999999999994          8.2364792070022119E-012
  -82.319999999999993          8.2217626803937627E-012
  -82.305000000000007          8.1006798491323195E-012
  -82.290000000000006          7.8722774826678332E-012
  -82.275000000000006          7.5368461471825299E-012
  -82.260000000000005          7.0959705125717143E-012
  -82.245000000000005          6.5525644805941585E-012
  -82.230000000000004          5.9109015425329314E-012
  -82.215000000000003          5.1766329937918965E-012
  -82.200000000000003          4.3567931380661395E-012
  -82.185000000000002          3.4597886621606788E-012
  -82.170000000000002          2.4953745667022353E-012
  -82.155000000000001          1.4746093885895095E-012
  -82.140000000000001          4.0979310331375196E-013
  -82.125000000000000         -6.8561709044498431E-013
  -82.109999999999999         -1.7971128057903130E-012
  -82.094999999999999         -2.9092644092398867E-012
  -82.079999999999998         -4.0058720229829703E-012
  -82.064999999999998         -5.0701439574529772E-012
  -82.049999999999997         -6.0848947408542742E-012
  -82.034999999999997         -7.0327662964053683E-012
  -82.019999999999996         -7.8964708036255438E-012
  -82.004999999999995         -8.6590474374093063E-012
  -81.989999999999995         -9.3041425258677535E-012
  -81.974999999999994         -9.8162884071273382E-012
  -81.960000000000008         -1.0181197898639915E-011
  -81.944999999999993         -1.0386060934897134E-011
  -81.930000000000007         -1.0419831664165713E-011
  -81.915000000000006         -1.0273513810499235E-011
  -81.900000000000006         -9.9404217496212866E-012
  -81.885000000000005         -9.4164285743825182E-012
  -81.870000000000005         -8.7001829351951443E-012
  -81.855000000000004         -7.7932868491892293E-012
  -81.840000000000003         -6.7004435853890154E-012