  -90.000000000000000          0.0000000000000000     
  -89.984999999999999          0.0000000000000000     
  -89.969999999999999          0.0000000000000000     
  -89.954999999999998          0.0000000000000000     
  -89.939999999999998          0.0000000000000000     
  -89.924999999999997          0.0000000000000000     
  -89.909999999999997          0.0000000000000000     
  -89.894999999999996          0.0000000000000000     
  -89.879999999999995          0.0000000000000000     
  -89.864999999999995          0.0000000000000000     
  -89.849999999999994          0.0000000000000000     
  -89.834999999999994          0.0000000000000000     
  -89.819999999999993          0.0000000000000000     
  -89.805000000000007          0.0000000000000000     
  -89.790000000000006          0.0000000000000000     
  -89.775000000000006          0.0000000000000000     
  -89.760000000000005          0.0000000000000000     
  -89.745000000000005          0.0000000000000000     
  -89.730000000000004          0.0000000000000000     
  -89.715000000000003          0.0000000000000000     
  -89.700000000000003          0.0000000000000000     
  -89.685000000000002          0.0000000000000000     
  -89.670000000000002          0.0000000000000000     
  -89.655000000000001          0.0000000000000000     
  -89.640000000000001          0.0000000000000000     
  -89.625000000000000          0.0000000000000000     
  -89.609999999999999          0.0000000000000000     
  -89.594999999999999          0.0000000000000000     
  -89.579999999999998          0.0000000000000000     
  -89.564999999999998          0.0000000000000000     
  -89.549999999999997          0.0000000000000000     
  -89.534999999999997          0.0000000000000000     
  -89.519999999999996          0.0000000000000000     
  -89.504999999999995          0.0000000000000000     
  -89.489999999999995          0.0000000000000000     
  -89.474999999999994          0.0000000000000000     
  -89.459999999999994          0.0000000000000000     
  -89.444999999999993          0.0000000000000000     
  -89.430000000000007          0.0000000000000000     
  -89.415000000000006          0.0000000000000000     
  -89.400000000000006          0.0000000000000000     
  -89.385000000000005          0.0000000000000000     
  -89.370000000000005          0.0000000000000000     
  -89.355000000000004          0.0000000000000000     
  -89.340000000000003          0.0000000000000000     
  -89.325000000000003          0.0000000000000000     
  -89.310000000000002          0.0000000000000000     
  -89.295000000000002          0.0000000000000000     
  -89.280000000000001          0.0000000000000000     
  -89.265000000000001          0.0000000000000000     
  -89.250000000000000          0.0000000000000000     
  -89.234999999999999          0.0000000000000000     
  -89.219999999999999          0.0000000000000000     
  -89.204999999999998          0.0000000000000000     
  -89.189999999999998          0.0000000000000000     
  -89.174999999999997          0.0000000000000000     
  -89.159999999999997          0.0000000000000000     
  -89.144999999999996          0.0000000000000000     
  -89.129999999999995          0.0000000000000000     
  -89.114999999999995          0.0000000000000000     
  -89.099999999999994          0.0000000000000000     
  -89.084999999999994          0.0000000000000000     
  -89.069999999999993          0.0000000000000000     
  -89.055000000000007          0.0000000000000000     
  -89.040000000000006          0.0000000000000000     
  -89.025000000000006          0.0000000000000000     
  -89.010000000000005          0.0000000000000000     
  -88.995000000000005          0.0000000000000000     
  -88.980000000000004          0.0000000000000000     
  -88.965000000000003          0.0000000000000000     
  -88.950000000000003          0.0000000000000000     
  -88.935000000000002          0.0000000000000000     
  -88.920000000000002          0.0000000000000000     
  -88.905000000000001          0.0000000000000000     
  -88.890000000000001          0.0000000000000000     
  -88.875000000000000          0.0000000000000000     
  -88.859999999999999          0.0000000000000000     
  -88.844999999999999          0.0000000000000000     
  -88.829999999999998          0.0000000000000000     
  -88.814999999999998          0.0000000000000000     
  -88.799999999999997          0.0000000000000000     
  -88.784999999999997          0.0000000000000000     
  -88.769999999999996          0.0000000000000000     
  -88.754999999999995          0.0000000000000000     
  -88.739999999999995          0.0000000000000000     
  -88.724999999999994          0.0000000000000000     
  -88.709999999999994          0.0000000000000000     
  -88.694999999999993          0.0000000000000000     
  -88.680000000000007          0.0000000000000000     
  -88.665000000000006          0.0000000000000000     
  -88.650000000000006          0.0000000000000000     
  -88.635000000000005          0.0000000000000000     
  -88.620000000000005          0.0000000000000000     
  -88.605000000000004          0.0000000000000000     
  -88.590000000000003          0.0000000000000000     
  -88.575000000000003          0.0000000000000000     
  -88.560000000000002          0.0000000000000000     
  -88.545000000000002          0.0000000000000000     
  -88.530000000000001          0.0000000000000000     
  -88.515000000000001          0.0000000000000000     
  -88.500000000000000          0.0000000000000000     
  -88.484999999999999          0.0000000000000000     
  -88.469999999999999          0.0000000000000000     
  -88.454999999999998          0.0000000000000000     
  -88.439999999999998          0.0000000000000000     
  -88.424999999999997          0.0000000000000000     
  -88.409999999999997          0.0000000000000000     
  -88.394999999999996          0.0000000000000000     
  -88.379999999999995          0.0000000000000000     
  -88.364999999999995          0.0000000000000000     
  -88.349999999999994          0.0000000000000000     
  -88.334999999999994          0.0000000000000000     
  -88.319999999999993          0.0000000000000000     
  -88.305000000000007          0.0000000000000000     
  -88.290000000000006          0.0000000000000000     
  -88.275000000000006          0.0000000000000000     
  -88.260000000000005          0.0000000000000000     
  -88.245000000000005          0.0000000000000000     
  -88.230000000000004          0.0000000000000000     
  -88.215000000000003          0.0000000000000000     
  -88.200000000000003          0.0000000000000000     
  -88.185000000000002          0.0000000000000000     
  -88.170000000000002          0.0000000000000000     
  -88.155000000000001          0.0000000000000000     
  -88.140000000000001          0.0000000000000000     
  -88.125000000000000          0.0000000000000000     
  -88.109999999999999          0.0000000000000000     
  -88.094999999999999          0.0000000000000000     
  -88.079999999999998          0.0000000000000000     
  -88.064999999999998          0.0000000000000000     
  -88.049999999999997          0.0000000000000000     
  -88.034999999999997          0.0000000000000000     
  -88.019999999999996          0.0000000000000000     
  -88.004999999999995          0.0000000000000000     
  -87.989999999999995          0.0000000000000000     
  -87.974999999999994          0.0000000000000000     
  -87.959999999999994          0.0000000000000000     
  -87.944999999999993          0.0000000000000000     
  -87.930000000000007          0.0000000000000000     
  -87.915000000000006          0.0000000000000000     
  -87.900000000000006          0.0000000000000000     
  -87.885000000000005          0.0000000000000000     
  -87.870000000000005          0.0000000000000000     
  -87.855000000000004          0.0000000000000000     
  -87.840000000000003          0.0000000000000000     
  -87.825000000000003          0.0000000000000000     
  -87.810000000000002          0.0000000000000000     
  -87.795000000000002          1.6123394781161454E-038
  -87.780000000000001          3.7430251436395908E-038
  -87.765000000000001          6.3865769386659011E-038
  -87.750000000000000          9.5663013993835732E-038
  -87.734999999999999          1.3292587192087725E-037
  -87.719999999999999          1.7377025814614186E-037
  -87.704999999999998          2.1679176892790779E-037
  -87.689999999999998          2.6256248156163872E-037
  -87.674999999999997          3.0931760076136398E-037
  -87.659999999999997          3.5331550268190830E-037
  -87.644999999999996          3.9068488171301394E-037
  -87.629999999999995          4.2313478388254687E-037
  -87.614999999999995          4.5371214772978412E-037
  -87.599999999999994          4.7698849994935935E-037
  -87.584999999999994          4.9209732241248496E-037
  -87.569999999999993          4.9209732241248496E-037
  -87.555000000000007          5.0539772997104239E-037
  -87.540000000000006          5.2213640828321805E-037
  -87.525000000000006          5.2213640828321805E-037
  -87.510000000000005          5.0673992727133584E-037
  -87.495000000000005          4.5750341117175963E-037
  -87.480000000000004          3.6750307790342363E-037
  -87.465000000000003          2.2805358990134091E-037
  -87.450000000000003         -6.1048711057857545E-038
  -87.435000000000002         -5.5661238624518580E-037
  -87.420000000000002         -1.3917862261412259E-036
  -87.405000000000001         -2.6898028503528364E-036
  -87.390000000000001         -4.5914236088732376E-036
  -87.375000000000000         -7.1117558892359278E-036
  -87.359999999999999         -1.0373074708518797E-035
  -87.344999999999999         -1.4490181970299878E-035
  -87.329999999999998         -1.9468143693628948E-035
  -87.314999999999998         -2.5296977073087710E-035
  -87.299999999999997         -3.2066619192937012E-035
  -87.284999999999997         -3.9843828719165205E-035
  -87.269999999999996         -4.8682300718432165E-035
  -87.254999999999995         -5.8646704599188646E-035
  -87.239999999999995         -6.9651248788867555E-035
  -87.224999999999994         -8.1680700074543685E-035
  -87.209999999999994         -9.4663771152324397E-035
  -87.194999999999993         -1.0851774693876389E-034
  -87.180000000000007         -1.2304248344942284E-034
  -87.165000000000006         -1.3798080111702930E-034
  -87.150000000000006         -1.5302328319615296E-034
  -87.135000000000005         -1.6778492084858847E-034
  -87.120000000000005         -1.8170528795903168E-034
  -87.105000000000004         -1.9416583802254746E-034
  -87.090000000000003         -2.0444085251018431E-034
  -87.075000000000003         -2.1166665301888737E-034
  -87.060000000000002         -2.1478607523463394E-034
  -87.045000000000002         -2.1263172928913766E-034
  -87.030000000000001         -2.0387436525213374E-034
  -87.015000000000001         -1.8705302961242979E-034
  -87.000000000000000         -1.6055811014942767E-034
  -86.984999999999999         -1.2266939026684398E-034
  -86.969999999999999         -7.1548759550202479E-035
  -86.954999999999998         -5.2826188071850692E-036
  -86.939999999999998          7.8068190121050824E-035
  -86.924999999999997          1.8046817199028738E-034
  -86.909999999999997          3.0380793842021066E-034
  -86.894999999999996          4.4986779512018394E-034
  -86.879999999999995          6.2024371673962589E-034
  -86.864999999999995          8.1626199151405023E-034
  -86.849999999999994          1.0388868462353678E-033
  -86.834999999999994          1.2886197027126012E-033
  -86.819999999999993          1.5654014188862247E-033
  -86.805000000000007          1.8684616786144651E-033
  -86.790000000000006          2.1962181562985201E-033
  -86.775000000000006          2.5461762325207542E-033
  -86.760000000000005          2.9147669962294754E-033
  -86.745000000000005          3.2972465930351465E-033
  -86.730000000000004          3.6875812471691953E-033
  -86.715000000000003          4.0783324671138168E-033
  -86.700000000000003          4.4605525368073455E-033
  -86.685000000000002          4.8237824952633401E-033
  -86.670000000000002          5.1559474441049634E-033
  -86.655000000000001          5.4433572822489512E-033
  -86.640000000000001          5.6707239709788905E-033
  -86.625000000000000          5.8212177372688677E-033
  -86.609999999999999          5.8765684601712275E-033
  -86.594999999999999          5.8172100362165330E-033
  -86.579999999999998          5.6224772747173282E-033
  -86.564999999999998          5.2708520168978420E-033
  -86.549999999999997          4.7402643563213858E-033
  -86.534999999999997          4.0084471239055240E-033
  -86.519999999999996          3.0533421681570762E-033
  -86.504999999999995          1.8535520021422229E-033
  -86.489999999999995          3.8885573530392050E-034
  -86.474999999999994         -1.3592591990153434E-033
  -86.459999999999994         -3.4070131534889779E-033
  -86.444999999999993         -5.7677290708866073E-033
  -86.430000000000007         -8.4512063496612663E-033
  -86.415000000000006         -1.1463087362696902E-032
  -86.400000000000006         -1.4804225812765799E-032
  -86.385000000000005         -1.8470065189890582E-032
  -86.370000000000005         -2.2450040738593236E-032
  -86.355000000000004         -2.6727015220606711E-032
  -86.340000000000003         -3.1276751411784990E-032
  -86.325000000000003         -3.6067446312466575E-032
  -86.310000000000002         -4.1059309438876132E-032
  -86.295000000000002         -4.6204210174819243E-032
  -86.280000000000001         -5.1445375081887068E-032
  -86.265000000000001         -5.6717173371737322E-032
  -86.250000000000000         -6.1944925888262265E-032
  -86.234999999999999         -6.7044802251833005E-032
  -86.219999999999999         -7.1923750329638451E-032
  -86.204999999999998         -7.6479449215911275E-032
  -86.189999999999998         -8.0600309231927919E-032
  -86.174999999999997         -8.4165466048536835E-032
  -86.159999999999997         -8.7044792441101995E-032
  -86.144999999999996         -8.9098868902144123E-032
  -86.129999999999995         -9.0179018906171215E-032
  -86.114999999999995         -9.0127214870130476E-032
  -86.099999999999994         -8.8776089908351831E-032
  -86.084999999999994         -8.5948873180358623E-032
  -86.069999999999993         -8.1459378135924109E-032
  -86.055000000000007         -7.5112096554619528E-032
  -86.040000000000006         -6.6702339605136194E-032
  -86.025000000000006         -5.6016631635893026E-032
  -86.010000000000005         -4.2833315554627219E-032
  -85.995000000000005         -2.6923546121120690E-032
  -85.980000000000004         -8.0527519682989126E-033
  -85.965000000000003          1.4017301405183388E-032
  -85.950000000000003          3.9525694856604081E-032
  -85.935000000000002          6.8708661608176166E-032
  -85.920000000000002          1.0179481327061550E-031
  -85.905000000000001          1.3899919771919739E-031
  -85.890000000000001          1.8051594196848839E-031
  -85.875000000000000          2.2650943890345098E-031
  -85.859999999999999          2.7710393827696709E-031
  -85.844999999999999          3.3237138034330704E-031
  -85.829999999999998          3.9231743098524179E-031
  -85.814999999999998          4.5686594167872508E-031
  -85.799999999999997          5.2584155217650123E-031
  -85.784999999999997          5.9895100014792711E-031
  -85.769999999999996          6.7576278512670286E-031
  -85.754999999999995          7.5568596259278311E-031
  -85.739999999999995          8.3794870295541794E-031
  -85.724999999999994          9.2157609821980938E-031
  -85.709999999999994          1.0053689090492485E-030
  -85.694999999999993          1.0878841926182140E-030
  -85.680000000000007          1.1674167298016290E-030
  -85.665000000000006          1.2419844490449110E-030
  -85.650000000000006          1.3093178939345884E-030
  -85.635000000000005          1.3668544867858687E-030
  -85.620000000000005          1.4117390928799266E-030
  -85.605000000000004          1.4408325780627782E-030
  -85.590000000000003          1.4507279835475483E-030
  -85.575000000000003          1.4377774212252170E-030
  -85.560000000000002          1.3981288431279139E-030
  -85.545000000000002          1.3277748479543635E-030
  -85.530000000000001          1.2226134306179365E-030
  -85.515000000000001          1.0785216152127847E-030
  -85.500000000000000          8.9144244159580214E-031
  -85.484999999999999          6.5748469432734888E-031
  -85.469999999999999          3.7303473920378807E-031
  -85.454999999999998          3.4881202065806018E-032
  -85.439999999999998         -3.5965079562419567E-031
  -85.424999999999997         -8.1255576802850295E-031
  -85.409999999999997         -1.3249971077835964E-030
  -85.394999999999996         -1.8971523380463372E-030
  -85.379999999999995         -2.5280559547767340E-030
  -85.364999999999995         -3.2154449902901317E-030
  -85.349999999999994         -3.9556099605735275E-030
  -85.334999999999994         -4.7432536178843758E-030
  -85.319999999999993         -5.5713670066262377E-030
  -85.305000000000007         -6.4311194370775439E-030
  -85.290000000000006         -7.3117757305892968E-030
  -85.275000000000006         -8.2006352819579242E-030
  -85.260000000000005         -9.0830106184083196E-030
  -85.245000000000005         -9.9422326658085348E-030
  -85.230000000000004         -1.0759704163133080E-029
  -85.215000000000003         -1.1514989940429070E-029
  -85.200000000000003         -1.2185959106612893E-029
  -85.185000000000002         -1.2748971623933582E-029
  -85.170000000000002         -1.3179119049215857E-029
  -85.155000000000001         -1.3450509661769862E-029
  -85.140000000000001         -1.3536609262713355E-029
  -85.125000000000000         -1.3410636893389970E-029
  -85.109999999999999         -1.3045995160341166E-029
  -85.094999999999999         -1.2416763754854475E-029
  -85.079999999999998         -1.1498220055901595E-029
  -85.064999999999998         -1.0267407881325091E-029
  -85.049999999999997         -8.7037340747313263E-030
  -85.034999999999997         -6.7895981943043086E-030
  -85.019999999999996         -4.5110380002636152E-030
  -85.004999999999995         -1.8583961952601783E-030
  -84.989999999999995          1.1730090736460050E-030
  -84.974999999999994          4.5822097633471456E-030
  -84.959999999999994          8.3619191254218182E-030
  -84.944999999999993          1.2497880012066866E-029
  -84.930000000000007          1.6968234246888069E-029
  -84.915000000000006          2.1742921524108914E-029
  -84.900000000000006          2.6783116299756767E-029
  -84.885000000000005          3.2040724492001635E-029
  -84.870000000000005          3.7457935100590980E-029
  -84.855000000000004          4.2966838030126387E-029
  -84.840000000000003          4.8489129182040823E-029
  -84.825000000000003          5.3935938926462970E-029
  -84.810000000000002          5.9207756870578769E-029
  -84.795000000000002          6.4194483016145572E-029
  -84.780000000000001          6.8775686556328414E-029
  -84.765000000000001          7.2821006108016583E-029
  -84.750000000000000          7.6190781657586625E-029
  -84.734999999999999          7.8736939284970542E-029
  -84.719999999999999          8.0304134684560274E-029
  -84.704999999999998          8.0731239742383524E-029
  -84.689999999999998          7.9853136058364469E-029
  -84.674999999999997          7.7502947821353030E-029
  -84.659999999999997          7.3514677925736256E-029
  -84.644999999999996          6.7726283440818266E-029
  -84.629999999999995          5.9983262655341671E-029
  -84.614999999999995          5.0142747678619394E-029
  -84.599999999999994          3.8078111626073513E-029
  -84.584999999999994          2.3684135528164185E-029
  -84.569999999999993          6.8826401708442098E-030
  -84.555000000000007         -1.2371368984212160E-029
  -84.540000000000006         -3.4083125049775689E-029
  -84.525000000000006         -5.8211172383793442E-029
  -84.510000000000005         -8.4660190995713171E-029
  -84.495000000000005         -1.1327369004975680E-028
  -84.480000000000004         -1.4382675102107528E-028
  -84.465000000000003         -1.7601900707924820E-028
  -84.450000000000003         -2.0946806483381746E-028
  -84.435000000000002         -2.4370368441473662E-028
  -84.420000000000002         -2.7816297668457206E-028
  -84.405000000000001         -3.1218688841635445E-028
  -84.390000000000001         -3.4501836062306949E-028
  -84.375000000000000         -3.7580264152127381E-028
  -84.359999999999999         -4.0358979024002272E-028
  -84.344999999999999         -4.2734011757296306E-028
  -84.329999999999998         -4.4593270821833717E-028
  -84.314999999999998         -4.5817724117401651E-028
  -84.299999999999997         -4.6282985458541858E-028
  -84.284999999999997         -4.5861264578619385E-028
  -84.269999999999996         -4.4423750468128753E-028
  -84.254999999999995         -4.1843423232412761E-028
  -84.239999999999995         -3.7998258357607465E-028
  -84.224999999999994         -3.2774878755299220E-028
  -84.209999999999994         -2.6072560696809002E-028
  -84.194999999999993         -1.7807586414866731E-028
  -84.180000000000007         -7.9178723540088669E-029
  -84.165000000000006          3.6321759813289574E-029
  -84.150000000000006          1.6846701447013051E-028
  -84.135000000000005          3.1693420943277177E-028
  -84.120000000000005          4.8098752210110144E-028
  -84.105000000000004          6.5943205738937308E-028
  -84.090000000000003          8.5057155249906762E-028
  -84.075000000000003          1.0521719286946959E-027
  -84.060000000000002          1.2614321134651410E-027
  -84.045000000000002          1.4749640108522371E-027
  -84.030000000000001          1.6887834495800301E-027
  -84.015000000000001          1.8983138423216728E-027
  -84.000000000000000          2.0984044820338959E-027
  -83.984999999999999          2.2833638605450463E-027
  -83.969999999999999          2.4470112834775963E-027
  -83.954999999999998          2.5827462037261422E-027
  -83.939999999999998          2.6836371994208342E-027
  -83.924999999999997          2.7425298260042626E-027
  -83.909999999999997          2.7521741127937761E-027
  -83.894999999999996          2.7053717040292330E-027
  -83.879999999999995          2.5951401406972574E-027
  -83.864999999999995          2.4148940905390059E-027
  -83.849999999999994          2.1586412151255122E-027
  -83.834999999999994          1.8211880517687416E-027
  -83.819999999999993          1.3983561991578488E-027
  -83.805000000000007          8.8720158448334621E-028
  -83.790000000000006          2.8623426019200731E-028
  -83.775000000000006         -4.0436680667608575E-028
  -83.760000000000005         -1.1825490081344536E-027
  -83.745000000000005         -2.0441962948542006E-027
  -83.730000000000004         -2.9829629202615651E-027
  -83.715000000000003         -3.9901316439457644E-027
  -83.700000000000003         -5.0545072277330700E-027
  -83.685000000000002         -6.1623495096212400E-027
  -83.670000000000002         -7.2973485592832366E-027
  -83.655000000000001         -8.4406506781214755E-027
  -83.640000000000001         -9.5709396735114788E-027
  -83.625000000000000         -1.0664572059083971E-026
  -83.609999999999999         -1.1695776581067117E-026
  -83.594999999999999         -1.2636913833643028E-026
  -83.579999999999998         -1.3458800585550392E-026
  -83.564999999999998         -1.4131093425329400E-026
  -83.549999999999997         -1.4622734036324885E-026
  -83.534999999999997         -1.4902457642191643E-026
  -83.519999999999996         -1.4939352296950280E-026
  -83.504999999999995         -1.4703456693641954E-026
  -83.489999999999995         -1.4166418061997373E-026
  -83.474999999999994         -1.3302168555033267E-026
  -83.459999999999994         -1.2087630139412033E-026
  -83.444999999999993         -1.0503438745100824E-026
  -83.430000000000007         -8.5346645631707496E-027
  -83.415000000000006         -6.1715311880381117E-027
  -83.400000000000006         -3.4101108781743269E-027
  -83.385000000000005         -2.5298919452973511E-028
  -83.370000000000005          3.2901150426173024E-027
  -83.355000000000004          7.2017854561866975E-027
  -83.340000000000003          1.1456415844602850E-026
  -83.325000000000003          1.6019795914263608E-026
  -83.310000000000002          2.0848792538134477E-026
  -83.295000000000002          2.5891132896036875E-026
  -83.280000000000001          3.1085307407778941E-026
  -83.265000000000001          3.6360592844314864E-026
  -83.250000000000000          4.1637200239164614E-026
  -83.234999999999999          4.6826595363156689E-026
  -83.219999999999999          5.1831939377199386E-026
  -83.204999999999998          5.6548698966887188E-026
  -83.189999999999998          6.0865432121918073E-026
  -83.174999999999997          6.4664746478833839E-026
  -83.159999999999997          6.7824417901131805E-026
  -83.144999999999996          7.0218721682042373E-026
  -83.129999999999995          7.1719917821702136E-026
  -83.114999999999995          7.2199982823359876E-026
  -83.099999999999994          7.1532483238026459E-026
  -83.084999999999994          6.9594689565181798E-026
  -83.069999999999993          6.6269868879780649E-026
  -83.055000000000007          6.1449780837460538E-026
  -83.040000000000006          5.5037340080096882E-026
  -83.025000000000006          4.6949497426999793E-026
  -83.010000000000005          3.7120247407115232E-026
  -82.995000000000005          2.5503796028597536E-026
  -82.980000000000004          1.2077844874550590E-026
  -82.965000000000003         -3.1530523862650960E-027
  -82.950000000000003         -2.0154088036778624E-026
  -82.935000000000002         -3.8856819919370315E-026
  -82.920000000000002         -5.9155871932690988E-026
  -82.905000000000001         -8.0905783980644920E-026
  -82.890000000000001         -1.0391808918110624E-025
  -82.875000000000000         -1.2795874852723302E-025
  -82.859999999999999         -1.5274602774229655E-025
  -82.844999999999999         -1.7794886409108854E-025
  -82.829999999999998         -2.0318601588925764E-025
  -82.814999999999998         -2.2802593924379303E-025
  -82.799999999999997         -2.5198771249939770E-025
  -82.784999999999997         -2.7454287280528345E-025
  -82.769999999999996         -2.9511865784045323E-025
  -82.754999999999995         -3.1310256641580952E-025
  -82.739999999999995         -3.2784825027904013E-025
  -82.724999999999994         -3.3868310690083100E-025
  -82.709999999999994         -3.4491752393859923E-025
  -82.694999999999993         -3.4585570142203661E-025
  -82.680000000000007         -3.4080844609091613E-025
  -82.665000000000006         -3.2910739554328931E-025
  -82.650000000000006         -3.1012101732072013E-025
  -82.635000000000005         -2.8327218571532957E-025
  -82.620000000000005         -2.4805704047581099E-025
  -82.605000000000004         -2.0406502880480344E-025
  -82.590000000000003         -1.5099973621717011E-025
  -82.575000000000003         -8.8700247414197568E-026
  -82.560000000000002         -1.7162602683920151E-026
  -82.545000000000002          6.3439189432814777E-026
  -82.530000000000001          1.5273302386331205E-025
  -82.515000000000001          2.5013014228282852E-025
  -82.500000000000000          3.5480868105061618E-025
  -82.484999999999999          4.6570009109269821E-025
  -82.469999999999999          5.8147893817688361E-025
  -82.454999999999998          7.0055704808573615E-025
  -82.439999999999998          8.2108252054044295E-025
  -82.424999999999997          9.4094411723959969E-025
  -82.409999999999997          1.0577818128738180E-024
  -82.394999999999996          1.1690041993694468E-024
  -82.379999999999995          1.2718129898804409E-024
  -82.364999999999995          1.3632345732245698E-024
  -82.349999999999994          1.4401596541439047E-024
  -82.334999999999994          1.4993906835667454E-024
  -82.319999999999993          1.5376961914024673E-024
  -82.305000000000007          1.5518731065530336E-024
  -82.290000000000006          1.5388151905965233E-024
  -82.275000000000006          1.4955879795731275E-024
  -82.260000000000005          1.4195080645061238E-024
  -82.245000000000005          1.3082271050882823E-024
  -82.230000000000004          1.1598171252672429E-024
  -82.215000000000003          9.7285748516031572E-025
  -82.200000000000003          7.4652086689315020E-025
  -82.185000000000002          4.8065556265291104E-025
  -82.170000000000002          1.7586352261408844E-025
  -82.155000000000001         -1.6642920224785597E-025
  -82.140000000000001         -5.4391145902180255E-025
  -82.125000000000000         -9.5333761509868755E-025
  -82.109999999999999         -1.3904924785131240E-024
  -82.094999999999999         -1.8501720817847886E-024
  -82.079999999999998         -2.3261827821239517E-024
  -82.064999999999998         -2.8113596517513304E-024
  -82.049999999999997         -3.2976072028423203E-024
  -82.034999999999997         -3.7759623977918003E-024
  -82.019999999999996         -4.2366812266984805E-024
  -82.004999999999995         -4.6693481618155014E-024
  -81.989999999999995         -5.0630110527652273E-024
  -81.974999999999994         -5.4063371237832530E-024
  -81.960000000000008         -5.6877932284352473E-024
  -81.944999999999993         -5.8958458258564266E-024
  -81.930000000000007         -6.0191775230700374E-024
  -81.915000000000006         -6.0469217611066604E-024
  -81.900000000000006         -5.9689085451761862E-024
  -81.885000000000005         -5.7759180634488444E-024
  -81.870000000000005         -5.4599402222930207E-024
  -81.855000000000004         -5.0144310260694543E-024
  -81.840000000000003         -4.4345681680645291E-024