  -90.000000000000000          0.0000000000000000     
  -89.984999999999999          0.0000000000000000     
  -89.969999999999999          0.0000000000000000     
  -89.954999999999998          0.0000000000000000     
  -89.939999999999998          0.0000000000000000     
  -89.924999999999997          0.0000000000000000     
  -89.909999999999997          0.0000000000000000     
  -89.894999999999996          0.0000000000000000     
  -89.879999999999995          0.0000000000000000     
  -89.864999999999995          0.0000000000000000     
  -89.849999999999994          0.0000000000000000     
  -89.834999999999994          0.0000000000000000     
  -89.819999999999993          0.0000000000000000     
  -89.805000000000007          0.0000000000000000     
  -89.790000000000006          0.0000000000000000     
  -89.775000000000006          0.0000000000000000     
  -89.760000000000005          0.0000000000000000     
  -89.745000000000005          0.0000000000000000     
  -89.730000000000004          0.0000000000000000     
  -89.715000000000003          0.0000000000000000     
  -89.700000000000003          0.0000000000000000     
  -89.685000000000002          0.0000000000000000     
  -89.670000000000002          0.0000000000000000     
  -89.655000000000001          0.0000000000000000     
  -89.640000000000001          0.0000000000000000     
  -89.625000000000000          0.0000000000000000     
  -89.609999999999999          4.4650097054407304E-038
  -89.594999999999999          1.5031774589401943E-037
  -89.579999999999998          4.0642489384602230E-037
  -89.564999999999998          9.6774595682219550E-037
  -89.549999999999997          2.1794060946089985E-036
  -89.534999999999997          4.7352946755769369E-036
  -89.519999999999996          9.9927910935766925E-036
  -89.504999999999995          2.0561320436512244E-035
  -89.489999999999995          4.0449782281689671E-035
  -89.474999999999994          7.7526630460488640E-035
  -89.459999999999994          1.4578940116378800E-034
  -89.444999999999993          2.6939058881296201E-034
  -89.430000000000007          4.8912269428192496E-034
  -89.415000000000006          8.7269710795504362E-034
  -89.400000000000006          1.5304740838099367E-033
  -89.385000000000005          2.6389153899609400E-033
  -89.370000000000005          4.4755158452093439E-033
  -89.355000000000004          7.4696384446819165E-033
  -89.340000000000003          1.2275169553438817E-032
  -89.325000000000003          1.9872916311209224E-032
  -89.310000000000002          3.1712363169576836E-032
  -89.295000000000002          4.9904825082945165E-032
  -89.280000000000001          7.7482304588900047E-032
  -89.265000000000001          1.1873863569718163E-031
  -89.250000000000000          1.7967132576753556E-031
  -89.234999999999999          2.6854347119676483E-031
  -89.219999999999999          3.9658485163691896E-031
  -89.204999999999998          5.7884811893813064E-031
  -89.189999999999998          8.3523030173948035E-031
  -89.174999999999997          1.1916583385415746E-030
  -89.159999999999997          1.6814201604896432E-030
  -89.144999999999996          2.3465959262753262E-030
  -89.129999999999995          3.2395078298492042E-030
  -89.114999999999995          4.4240536752519195E-030
  -89.099999999999994          5.9767210931400649E-030
  -89.084999999999994          7.9869954843456938E-030
  -89.069999999999993          1.0556750267446661E-029
  -89.055000000000007          1.3798073812889919E-029
  -89.040000000000006          1.7828817986944277E-029
  -89.025000000000006          2.2764931295425691E-029
  -89.010000000000005          2.8708420316912077E-029
  -88.995000000000005          3.5729458114486508E-029
  -88.980000000000004          4.3840909298324381E-029
  -88.965000000000003          5.2963109581835443E-029
  -88.950000000000003          6.2876412673393405E-029
  -88.935000000000002          7.3158639682860894E-029
  -88.920000000000002          8.3104129878614428E-029
  -88.905000000000001          9.1620742555971690E-029
  -88.890000000000001          9.7100928064476960E-029
  -88.875000000000000          9.7262652013025802E-029
  -88.859999999999999          8.8956037921979663E-029
  -88.844999999999999          6.7931557480234564E-029
  -88.829999999999998          2.8566250575829842E-029
  -88.814999999999998         -3.6454946896740565E-029
  -88.799999999999997         -1.3650436537251501E-028
  -88.784999999999997         -2.8342302840043387E-028
  -88.769999999999996         -4.9197562650931116E-028
  -88.754999999999995         -7.8034328744896482E-028
  -88.739999999999995         -1.1706434869972351E-027
  -88.724999999999994         -1.6894621472924322E-027
  -88.709999999999994         -2.3683761416272488E-027
  -88.694999999999993         -3.2444358361963260E-027
  -88.680000000000007         -4.3605711724250274E-027
  -88.665000000000006         -5.7658698675499061E-027
  -88.650000000000006         -7.5156742888949070E-027
  -88.635000000000005         -9.6714131275942276E-027
  -88.620000000000005         -1.2300097960504855E-026
  -88.605000000000004         -1.5473374151929973E-026
  -88.590000000000003         -1.9266017087518381E-026
  -88.575000000000003         -2.3753749710451520E-026
  -88.560000000000002         -2.9010251937425823E-026
  -88.545000000000002         -3.5103197865199147E-026
  -88.530000000000001         -4.2089208293392521E-026
  -88.515000000000001         -5.0007519807576957E-026
  -88.500000000000000         -5.8872288763215678E-026
  -88.484999999999999         -6.8663352984906885E-026
  -88.469999999999999         -7.9315397254888606E-026
  -88.454999999999998         -9.0705427064680405E-026
  -88.439999999999998         -1.0263857528176523E-025
  -88.424999999999997         -1.1483227562767840E-025
  -88.409999999999997         -1.2689897553082681E-025
  -88.394999999999996         -1.3832756091736129E-025
  -88.379999999999995         -1.4846400446709539E-025
  -88.364999999999995         -1.5649150234243098E-025
  -88.349999999999994         -1.6141101151071223E-025
  -88.334999999999994         -1.6202274849080783E-025
  -88.319999999999993         -1.5690984514123100E-025
  -88.305000000000007         -1.4442517221783189E-025
  -88.290000000000006         -1.2268271120764681E-025
  -88.275000000000006         -8.9554965879052890E-026
  -88.260000000000005         -4.2678151507410316E-026
  -88.245000000000005          2.0533226605630695E-026
  -88.230000000000004          1.0286043624838281E-025
  -88.215000000000003          2.0724137723967584E-025
  -88.200000000000003          3.3671635340459858E-025
  -88.185000000000002          4.9435723841188822E-025
  -88.170000000000002          6.8317814652087780E-025
  -88.155000000000001          9.0602686559941519E-025
  -88.140000000000001          1.1654555085873101E-024
  -88.125000000000000          1.4635712708738275E-024
  -88.109999999999999          1.8018665786840325E-024
  -88.094999999999999          2.1810298117653436E-024
  -88.079999999999998          2.6007401009445620E-024
  -88.064999999999998          3.0594469401124760E-024
  -88.049999999999997          3.5541410221308936E-024
  -88.034999999999997          4.0801191582828871E-024
  -88.019999999999996          4.6307523531666582E-024
  -88.004999999999995          5.1972609793375495E-024
  -87.989999999999995          5.7685090818270087E-024
  -87.974999999999994          6.3308264900084607E-024
  -87.959999999999994          6.8678672170648212E-024
  -87.944999999999993          7.3605155855407744E-024
  -87.930000000000007          7.7868546729065650E-024
  -87.915000000000006          8.1222049657423536E-024
  -87.900000000000006          8.3392426888740002E-024
  -87.885000000000005          8.4082127978174732E-024
  -87.870000000000005          8.2972421565582231E-024
  -87.855000000000004          7.9727568449700434E-024
  -87.840000000000003          7.4000154287870009E-024
  -87.825000000000003          6.5437542478239058E-024
  -87.810000000000002          5.3689427502930614E-024
  -87.795000000000002          3.8416484787868383E-024
  -87.780000000000001          1.9299973112145554E-024
  -87.765000000000001         -3.9478455254933698E-025
  -87.750000000000000         -3.1572603675487712E-024
  -87.734999999999999         -6.3766328817614766E-024
  -87.719999999999999         -1.0065577216389705E-023
  -87.704999999999998         -1.4229091199698484E-023
  -87.689999999999998         -1.8863390271495016E-023
  -87.674999999999997         -2.3954894191295921E-023
  -87.659999999999997         -2.9479331286769359E-023
  -87.644999999999996         -3.5401013490563131E-023
  -87.629999999999995         -4.1672287293114648E-023
  -87.614999999999995         -4.8233249752725044E-023
  -87.599999999999994         -5.5011694853017633E-023
  -87.584999999999994         -6.1923365938427566E-023
  -87.569999999999993         -6.8872511072279119E-023
  -87.555000000000007         -7.5752735006563322E-023
  -87.540000000000006         -8.2448163540634071E-023
  -87.525000000000006         -8.8834901336160977E-023
  -87.510000000000005         -9.4782742167571878E-023
  -87.495000000000005         -1.0015713160798504E-022
  -87.480000000000004         -1.0482124331111168E-022
  -87.465000000000003         -1.0863818782179062E-022
  -87.450000000000003         -1.1147324031918458E-022
  -87.435000000000002         -1.1319599894021692E-022
  -87.420000000000002         -1.1368232853284205E-022
  -87.405000000000001         -1.1281610877181145E-022
  -87.390000000000001         -1.1049055944499439E-022
  -87.375000000000000         -1.0660908611226837E-022
  -87.359999999999999         -1.0108562720431741E-022
  -87.344999999999999         -9.3844351100044413E-023
  -87.329999999999998         -8.4818627451950794E-023
  -87.314999999999998         -7.3949323246581187E-023
  -87.299999999999997         -6.1182379423822607E-023
  -87.284999999999997         -4.6465728008486845E-023
  -87.269999999999996         -2.9745622329379385E-023
  -87.254999999999995         -1.0962501021573322E-023
  -87.239999999999995          9.9534469495997799E-024
  -87.224999999999994          3.3086763807352458E-023
  -87.209999999999994          5.8541020677652989E-023
  -87.194999999999993          8.6442601754987736E-023
  -87.180000000000007          1.1694364359809400E-022
  -87.165000000000006          1.5022375405787251E-022
  -87.150000000000006          1.8649003752093636E-022
  -87.135000000000005          2.2597522688698748E-022
  -87.120000000000005          2.6893328488040909E-022
  -87.105000000000004          3.1563226012590807E-022
  -87.090000000000003          3.6634402564585977E-022
  -87.075000000000003          4.2133073569628724E-022
  -87.060000000000002          4.8082760966646567E-022
  -87.045000000000002          5.4502230809941626E-022
  -87.030000000000001          6.1403085034619169E-022
  -87.015000000000001          6.8786989714911022E-022
  -87.000000000000000          7.6642650887009318E-022
  -86.984999999999999          8.4942563179959533E-022
  -86.969999999999999          9.3639561546871590E-022
  -86.954999999999998          1.0266334270387219E-021
  -86.939999999999998          1.1191706229970406E-021
  -86.924999999999997          1.2127407849790919E-021
  -86.909999999999997          1.3057501362772908E-021
  -86.894999999999996          1.3962537119308221E-021
  -86.879999999999995          1.4819378901897559E-021
  -86.864999999999995          1.5601110019148311E-021
  -86.849999999999994          1.6277044412936104E-021
  -86.834999999999994          1.6812858934601389E-021
  -86.819999999999993          1.7170853858374781E-021
  -86.805000000000007          1.7310367885322079E-021
  -86.790000000000006          1.7188346628067004E-021
  -86.775000000000006          1.6760087800356703E-021
  -86.760000000000005          1.5980145945856738E-021
  -86.745000000000005          1.4803409832820989E-021
  -86.730000000000004          1.3186348475668680E-021
  -86.715000000000003          1.1088396500951683E-021
  -86.700000000000003          8.4734717895184246E-022
  -86.685000000000002          5.3116026756802987E-022
  -86.670000000000002          1.5806162357665881E-022
  -86.655000000000001         -2.7321380823520659E-022
  -86.640000000000001         -7.6280809856115302E-022
  -86.625000000000000         -1.3095763514813279E-021
  -86.609999999999999         -1.9109348392718534E-021
  -86.594999999999999         -2.5627267067243217E-021
  -86.579999999999998         -3.2591134238852366E-021
  -86.564999999999998         -3.9924954708251589E-021
  -86.549999999999997         -4.7534685148376995E-021
  -86.534999999999997         -5.5308244201814784E-021
  -86.519999999999996         -6.3115956767263064E-021
  -86.504999999999995         -7.0811547585619194E-021
  -86.489999999999995         -7.8233627580142972E-021
  -86.474999999999994         -8.5207826431473364E-021
  -86.459999999999994         -9.1549409828785418E-021
  -86.444999999999993         -9.7066494488186707E-021
  -86.430000000000007         -1.0156382862661064E-020
  -86.415000000000006         -1.0484700056630023E-020
  -86.400000000000006         -1.0672709162575377E-020
  -86.385000000000005         -1.0702570059571114E-020
  -86.370000000000005         -1.0558018631940339E-020
  -86.355000000000004         -1.0224902336390151E-020
  -86.340000000000003         -9.6917165769401011E-021
  -86.325000000000003         -8.9501273473600042E-021
  -86.310000000000002         -7.9954599462779420E-021
  -86.295000000000002         -6.8271456870227842E-021
  -86.280000000000001         -5.4491043878781378E-021
  -86.265000000000001         -3.8700529492249206E-021
  -86.250000000000000         -2.1037186110430347E-021
  -86.234999999999999         -1.6895165273573039E-022
  -86.219999999999999          1.9102793147922764E-021
  -86.204999999999998          4.1050154601458121E-021
  -86.189999999999998          6.3815639282177120E-021
  -86.174999999999997          8.7018899608567005E-021
  -86.159999999999997          1.1024134099320403E-020
  -86.144999999999996          1.3303261448354779E-020
  -86.129999999999995          1.5491826252805237E-020
  -86.114999999999995          1.7540836640630048E-020
  -86.099999999999994          1.9400713473864318E-020
  -86.084999999999994          2.1022313823069298E-020
  -86.069999999999993          2.2358005332776434E-020
  -86.055000000000007          2.3362750280454199E-020
  -86.040000000000006          2.3995188019887809E-020
  -86.025000000000006          2.4218688343990515E-020
  -86.010000000000005          2.4002328915019614E-020
  -85.995000000000005          2.3321787068674351E-020
  -85.980000000000004          2.2160123373855862E-020
  -85.965000000000003          2.0508410096062257E-020
  -85.950000000000003          1.8366217489115920E-020
  -85.935000000000002          1.5741919141131816E-020
  -85.920000000000002          1.2652822837075337E-020
  -85.905000000000001          9.1251188599740177E-021
  -85.890000000000001          5.1936481541638183E-021
  -85.875000000000000          9.0150842495104666E-022
  -85.859999999999999         -3.7004902132775698E-021
  -85.844999999999999         -8.5544926764895731E-021
  -85.829999999999998         -1.3596366112946982E-020
  -85.814999999999998         -1.8756520722444505E-020
  -85.799999999999997         -2.3960750164541753E-020
  -85.784999999999997         -2.9131074895047131E-020
  -85.769999999999996         -3.4186505530938600E-020
  -85.754999999999995         -3.9043729474895585E-020
  -85.739999999999995         -4.3617673139621568E-020
  -85.724999999999994         -4.7821886457581955E-020
  -85.709999999999994         -5.1568798143771228E-020
  -85.694999999999993         -5.4769748007455629E-020
  -85.680000000000007         -5.7334873861073782E-020
  -85.665000000000006         -5.9172830408075396E-020
  -85.650000000000006         -6.0190372421440725E-020
  -85.635000000000005         -6.0291889454586002E-020
  -85.620000000000005         -5.9378895315829133E-020
  -85.605000000000004         -5.7349582166340740E-020
  -85.590000000000003         -5.4098562026202739E-020
  -85.575000000000003         -4.9516828000317125E-020
  -85.560000000000002         -4.3492080627007023E-020
  -85.545000000000002         -3.5909561520977770E-020
  -85.530000000000001         -2.6653441162664934E-020
  -85.515000000000001         -1.5608917545921239E-020
  -85.500000000000000         -2.6651131276960251E-021
  -85.484999999999999          1.2281168326033275E-020
  -85.469999999999999          2.9320757749263197E-020
  -85.454999999999998          4.8526482780763745E-020
  -85.439999999999998          6.9946580005591552E-020
  -85.424999999999997          9.3597263456222363E-020
  -85.409999999999997          1.1945441887909570E-019
  -85.394999999999996          1.4744471154302990E-019
  -85.379999999999995          1.7743623845206545E-019
  -85.364999999999995          2.0922896406963228E-019
  -85.349999999999994          2.4254525297794522E-019
  -85.334999999999994          2.7702090013823658E-019
  -85.319999999999993          3.1219683323523651E-019
  -85.305000000000007          3.4751235306060476E-019
  -85.290000000000006          3.8229989901061690E-019
  -85.275000000000006          4.1578199885765551E-019
  -85.260000000000005          4.4707106195505705E-019
  -85.245000000000005          4.7517209342349679E-019
  -85.230000000000004          4.9898910480073611E-019
  -85.215000000000003          5.1733535040170285E-019
  -85.200000000000003          5.2894782882860510E-019
  -85.185000000000002          5.3250635982380823E-019
  -85.170000000000002          5.2665705551971606E-019
  -85.155000000000001          5.1004065137475084E-019
  -85.140000000000001          4.8132497301239592E-019
  -85.125000000000000          4.3924184915603092E-019
  -85.109999999999999          3.8262754008137033E-019
  -85.094999999999999          3.1046644894195800E-019
  -85.079999999999998          2.2193705614255808E-019
  -85.064999999999998          1.1645926250452654E-019
  -85.049999999999997         -6.2578620564466044E-021
  -85.034999999999997         -1.4616947045711163E-019
  -85.019999999999996         -3.0285046779521157E-019
  -85.004999999999995         -4.7545488579541335E-019
  -84.989999999999995         -6.6268044490552589E-019
  -84.974999999999994         -8.6274017650849321E-019
  -84.959999999999994         -1.0733421182232957E-018
  -84.944999999999993         -1.2916791292436582E-018
  -84.930000000000007         -1.5144297692174505E-018
  -84.915000000000006         -1.7377718433292181E-018
  -84.900000000000006         -1.9574087686822077E-018
  -84.885000000000005         -2.1686119673047597E-018
  -84.870000000000005         -2.3662754600707374E-018
  -84.855000000000004         -2.5449878314128191E-018
  -84.840000000000003         -2.6991176357207436E-018
  -84.825000000000003         -2.8229126590148171E-018
  -84.810000000000002         -2.9106132426898331E-018
  -84.795000000000002         -2.9565767741972609E-018
  -84.780000000000001         -2.9554110699190205E-018
  -84.765000000000001         -2.9021166502328415E-018
  -84.750000000000000         -2.7922327368903785E-018
  -84.734999999999999         -2.6219857319371645E-018
  -84.719999999999999         -2.3884345947052674E-018
  -84.704999999999998         -2.0896129100834953E-018
  -84.689999999999998         -1.7246605136323698E-018
  -84.674999999999997         -1.2939432259777924E-018
  -84.659999999999997         -7.9915506131548340E-019
  -84.644999999999996         -2.4340156585769660E-019
  -84.629999999999995          3.6874178838541336E-019
  -84.614999999999995          1.0311975762064487E-018
  -84.599999999999994          1.7363838342613542E-018
  -84.584999999999994          2.4752440980654105E-018
  -84.569999999999993          3.2373098799788764E-018
  -84.555000000000007          4.0107986125613934E-018
  -84.540000000000006          4.7827454804821114E-018
  -84.525000000000006          5.5391694770276594E-018
  -84.510000000000005          6.2652715138588510E-018
  -84.495000000000005          6.9456643772209749E-018
  -84.480000000000004          7.5646279131627670E-018
  -84.465000000000003          8.1063890281737599E-018
  -84.450000000000003          8.5554198877951082E-018
  -84.435000000000002          8.8967485229396021E-018
  -84.420000000000002          9.1162789487887255E-018
  -84.405000000000001          9.2011112836897138E-018
  -84.390000000000001          9.1398552506077119E-018
  -84.375000000000000          8.9229370611330310E-018
  -84.359999999999999          8.5428806568894169E-018
  -84.344999999999999          7.9945682714270040E-018
  -84.329999999999998          7.2754703864326051E-018
  -84.314999999999998          6.3858343289093737E-018
  -84.299999999999997          5.3288339908676755E-018
  -84.284999999999997          4.1106736404919648E-018
  -84.269999999999996          2.7406398277242210E-018
  -84.254999999999995          1.2311037624082108E-018
  -84.239999999999995         -4.0253147017335099E-019
  -84.224999999999994         -2.1419353925499245E-018
  -84.209999999999994         -3.9660080231625657E-018
  -84.194999999999993         -5.8510877054928304E-018
  -84.180000000000007         -7.7712063449805350E-018
  -84.165000000000006         -9.6983874525382174E-018
  -84.150000000000006         -1.1602983220650752E-017
  -84.135000000000005         -1.3454043032338242E-017
  -84.120000000000005         -1.5219711335030658E-017
  -84.105000000000004         -1.6867647021138401E-017
  -84.090000000000003         -1.8365451080428995E-017
  -84.075000000000003         -1.9681106660112962E-017
  -84.060000000000002         -2.0783424088013378E-017
  -84.045000000000002         -2.1642474315206849E-017
  -84.030000000000001         -2.2230020704303264E-017
  -84.015000000000001         -2.2519932619752075E-017
  -84.000000000000000         -2.2488587437619990E-017
  -83.984999999999999         -2.2115256011756432E-017
  -83.969999999999999         -2.1382453398373255E-017
  -83.954999999999998         -2.0276284617540792E-017
  -83.939999999999998         -1.8786763944904304E-017
  -83.924999999999997         -1.6908107733620820E-017
  -83.909999999999997         -1.4639012347044956E-017
  -83.894999999999996         -1.1982918856524933E-017
  -83.879999999999995         -8.9482463063353160E-018
  -83.864999999999995         -5.5486212562969966E-018
  -83.849999999999994         -1.8030851973157927E-018
  -83.834999999999994          2.2637145766912064E-018
  -83.819999999999993          6.6213525016379219E-018
  -83.805000000000007          1.1233475850759027E-017
  -83.790000000000006          1.6057685000216277E-017
  -83.775000000000006          2.1045443473206900E-017
  -83.760000000000005          2.6142039062474800E-017
  -83.745000000000005          3.1286597892380975E-017
  -83.730000000000004          3.6412156383616807E-017
  -83.715000000000003          4.1445834961132698E-017
  -83.700000000000003          4.6309084553960615E-017
  -83.685000000000002          5.0918072061379531E-017
  -83.670000000000002          5.5184186587450316E-017
  -83.655000000000001          5.9014684641893526E-017
  -83.640000000000001          6.2313514011979503E-017
  -83.625000000000000          6.4982309687985890E-017
  -83.609999999999999          6.6921604855614412E-017
  -83.594999999999999          6.8032164311138306E-017
  -83.579999999999998          6.8216632205182531E-017
  -83.564999999999998          6.7381272430732579E-017
  -83.549999999999997          6.5437993561274002E-017
  -83.534999999999997          6.2306466433160551E-017
  -83.519999999999996          5.7916460103664023E-017
  -83.504999999999995          5.2210296923032321E-017
  -83.489999999999995          4.5145353928661812E-017
  -83.474999999999994          3.6696650266053395E-017
  -83.459999999999994          2.6859409794350188E-017
  -83.444999999999993          1.5651549245620091E-017
  -83.430000000000007          3.1160228683020636E-018
  -83.415000000000006         -1.0677038070139505E-017
  -83.400000000000006         -2.5628480670448803E-017
  -83.385000000000005         -4.1608663810352537E-017
  -83.370000000000005         -5.8456423755203938E-017
  -83.355000000000004         -7.5978597288359624E-017
  -83.340000000000003         -9.3950121800033716E-017
  -83.325000000000003         -1.1211484261557569E-016
  -83.310000000000002         -1.3018700522929544E-016
  -83.295000000000002         -1.4785357141017838E-016
  -83.280000000000001         -1.6477735587076830E-016
  -83.265000000000001         -1.8060097688177290E-016
  -83.250000000000000         -1.9495162083239207E-016
  -83.234999999999999         -2.0744668029337309E-016
  -83.219999999999999         -2.1770014646878440E-016
  -83.204999999999998         -2.2532971633183871E-016
  -83.189999999999998         -2.2996444239119782E-016
  -83.174999999999997         -2.3125309714132683E-016
  -83.159999999999997         -2.2887261692218703E-016
  -83.144999999999996         -2.2253712811408008E-016
  -83.129999999999995         -2.1200673510447582E-016
  -83.114999999999995         -1.9709630825483996E-016
  -83.099999999999994         -1.7768395423010670E-016
  -83.084999999999994         -1.5371885105344078E-016
  -83.069999999999993         -1.2522840818161976E-016
  -83.055000000000007         -9.2324407493901597E-017
  -83.040000000000006         -5.5207923362308138E-017
  -83.025000000000006         -1.4172887800065200E-017
  -83.010000000000005          3.0391935885455871E-017
  -82.995000000000005          7.8002747951946285E-017
  -82.980000000000004          1.2808236658338492E-016
  -82.965000000000003          1.7996386252164986E-016
  -82.950000000000003          2.3289628811944097E-016
  -82.935000000000002          2.8605247599909503E-016
  -82.920000000000002          3.3853892551526695E-016
  -82.905000000000001          3.8940762151152197E-016
  -82.890000000000001          4.3766989124995710E-016
  -82.875000000000000          4.8231194217182734E-016
  -82.859999999999999          5.2231180255649079E-016
  -82.844999999999999          5.5665782389735020E-016
  -82.829999999999998          5.8436797737118260E-016
  -82.814999999999998          6.0450978558217942E-016
  -82.799999999999997          6.1622070429223977E-016
  -82.784999999999997          6.1872839827214533E-016
  -82.769999999999996          6.1137048775714324E-016
  -82.754999999999995          5.9361323611134488E-016
  -82.739999999999995          5.6506912576138142E-016
  -82.724999999999994          5.2551263418504639E-016
  -82.709999999999994          4.7489373349889259E-016
  -82.694999999999993          4.1334911364478318E-016
  -82.680000000000007          3.4121038802156821E-016
  -82.665000000000006          2.5900912274320897E-016
  -82.650000000000006          1.6747868952335008E-016
  -82.635000000000005          6.7552452495416753E-017
  -82.620000000000005         -3.9641787132379047E-017
  -82.605000000000004         -1.5279089998994409E-016
  -82.590000000000003         -2.7040939211986381E-016
  -82.575000000000003         -3.9085578315353081E-016
  -82.560000000000002         -5.1235260092091154E-016
  -82.545000000000002         -6.3300953258153044E-016
  -82.530000000000001         -7.5084923265958154E-016
  -82.515000000000001         -8.6383585746633912E-016
  -82.500000000000000         -9.6990577004449569E-016
  -82.484999999999999         -1.0669995686014800E-015
  -82.469999999999999         -1.1530954913713145E-015
  -82.454999999999998         -1.2262433508720646E-015
  -82.439999999999998         -1.2845982034654919E-015
  -82.424999999999997         -1.3264542306749448E-015
  -82.409999999999997         -1.3502763970417615E-015
  -82.394999999999996         -1.3547315785860823E-015
  -82.379999999999995         -1.3387169384105821E-015
  -82.364999999999995         -1.3013857612053617E-015
  -82.349999999999994         -1.2421706407748792E-015
  -82.334999999999994         -1.1608026441583814E-015
  -82.319999999999993         -1.0573270876185464E-015
  -82.305000000000007         -9.3211550098186349E-016
  -82.290000000000006         -7.8587256272088916E-016
  -82.275000000000006         -6.1963969984427255E-016
  -82.260000000000005         -4.3479363205887751E-016
  -82.245000000000005         -2.3304070723694783E-016
  -82.230000000000004         -1.6406662574485049E-017
  -82.215000000000003          2.1277782625405285E-016
  -82.200000000000003          4.5189567725019506E-016
  -82.185000000000002          6.9806595103495618E-016
  -82.170000000000002          9.4817048110147671E-016
  -82.155000000000001          1.1988835514010403E-015
  -82.140000000000001          1.4467052747351512E-015
  -82.125000000000000          1.6879981739909445E-015
  -82.109999999999999          1.9190257750798445E-015
  -82.094999999999999          2.1359943233102176E-015
  -82.079999999999998          2.3350970408588662E-015
  -82.064999999999998          2.5125595489128251E-015
  -82.049999999999997          2.6646873015144078E-015
  -82.034999999999997          2.7879147134721475E-015
  -82.019999999999996          2.8788549235464478E-015
  -82.004999999999995          2.9343508281846550E-015
  -81.989999999999995          2.9515265387726041E-015
  -81.974999999999994          2.9278382036114535E-015
  -81.960000000000008          2.8611263122021785E-015
  -81.944999999999993          2.7496652466729851E-015
  -81.930000000000007          2.5922124096902513E-015
  -81.915000000000006          2.3880562935782836E-015
  -81.900000000000006          2.1370605260325739E-015
  -81.885000000000005          1.8397062217671628E-015
  -81.870000000000005          1.4971294637225550E-015
  -81.855000000000004          1.1111539138341890E-015
  -81.840000000000003          6.8431765338895323E-016