  -90.000000000000000          0.0000000000000000     
  -89.984999999999999          0.0000000000000000     
  -89.969999999999999          0.0000000000000000     
  -89.954999999999998          0.0000000000000000     
  -89.939999999999998          0.0000000000000000     
  -89.924999999999997         -2.1645471547964295E-024
  -89.909999999999997         -2.3887927789051709E-023
  -89.894999999999996         -1.4382890677223993E-022
  -89.879999999999995         -6.2551121251963274E-022
  -89.864999999999995         -2.1971952709197120E-021
  -89.849999999999994         -6.6145303812346791E-021
  -89.834999999999994         -1.7695483872260519E-020
  -89.819999999999993         -4.3095718941926340E-020
  -89.805000000000007         -9.7185779748630536E-020
  -89.790000000000006         -2.0549637617897210E-019
  -89.775000000000006         -4.1130876120133359E-019
  -89.760000000000005         -7.8507582690437145E-019
  -89.745000000000005         -1.4374549263526799E-018
  -89.730000000000004         -2.5368001909146161E-018
  -89.715000000000003         -4.3319858133805273E-018
  -89.700000000000003         -7.1813934810057242E-018
  -89.685000000000002         -1.1588770603365866E-017
  -89.670000000000002         -1.8246452877507117E-017
  -89.655000000000001         -2.8086083901180601E-017
  -89.640000000000001         -4.2336529809839998E-017
  -89.625000000000000         -6.2588005626449100E-017
  -89.609999999999999         -9.0860787500605369E-017
  -89.594999999999999         -1.2967586055029687E-016
  -89.579999999999998         -1.8212403476516474E-016
  -89.564999999999998         -2.5192880080688988E-016
  -89.549999999999997         -3.4349727110003642E-016
  -89.534999999999997         -4.6195239355382696E-016
  -89.519999999999996         -6.1313851021585898E-016
  -89.504999999999995         -8.0359190964229789E-016
  -89.489999999999995         -1.0404671085616863E-015
  -89.474999999999994         -1.3314091616581456E-015
  -89.459999999999994         -1.6843635556142763E-015
  -89.444999999999993         -2.1073146347491342E-015
  -89.430000000000007         -2.6079458349272631E-015
  -89.415000000000006         -3.1932168023597780E-015
  -89.400000000000006         -3.8688543268030652E-015
  -89.385000000000005         -4.6387581479462835E-015
  -89.370000000000005         -5.5043284112512442E-015
  -89.355000000000004         -6.4637228200576692E-015
  -89.340000000000003         -7.5110561894480357E-015
  -89.325000000000003         -8.6355644247286360E-015
  -89.310000000000002         -9.8207642647459015E-015
  -89.295000000000002         -1.1043629965861671E-014
  -89.280000000000001         -1.2273827584168874E-014
  -89.265000000000001         -1.3473050054627934E-014
  -89.250000000000000         -1.4594501348001894E-014
  -89.234999999999999         -1.5582560198776352E-014
  -89.219999999999999         -1.6372692860765897E-014
  -89.204999999999998         -1.6891654700955556E-014
  -89.189999999999998         -1.7058006889598618E-014
  -89.174999999999997         -1.6783012561074825E-014
  -89.159999999999997         -1.5971934468365576E-014
  -89.144999999999996         -1.4525737519277895E-014
  -89.129999999999995         -1.2343233463866891E-014
  -89.114999999999995         -9.3236321576728801E-015
  -89.099999999999994         -5.3694913539602002E-015
  -89.084999999999994         -3.9001949693679479E-016
  -89.069999999999993          5.6953368819559307E-015
  -89.055000000000007          1.2953093797758199E-014
  -89.040000000000006          2.1431827531203859E-014
  -89.025000000000006          3.1158279759470678E-014
  -89.010000000000005          4.2133614305828182E-014
  -88.995000000000005          5.4329957010048127E-014
  -88.980000000000004          6.7687385373309955E-014
  -88.965000000000003          8.2111522984630592E-014
  -88.950000000000003          9.7471875948156039E-014
  -88.935000000000002          1.1360109088229958E-013
  -88.920000000000002          1.3029522935841670E-013
  -88.905000000000001          1.4731519769242002E-013
  -88.890000000000001          1.6438930837241184E-013
  -88.875000000000000          1.8121726450166797E-013
  -88.859999999999999          1.9747517423368555E-013
  -88.844999999999999          2.1282194756500061E-013
  -88.829999999999998          2.2690670956754255E-013
  -88.814999999999998          2.3937720295547082E-013
  -88.799999999999997          2.4988884117331522E-013
  -88.784999999999997          2.5811443911047394E-013
  -88.769999999999996          2.6375394381571160E-013
  -88.754999999999995          2.6654424652682029E-013
  -88.739999999999995          2.6626834417897705E-013
  -88.724999999999994          2.6276360644630903E-013
  -88.709999999999994          2.5592895858128628E-013
  -88.694999999999993          2.4573038374074707E-013
  -88.680000000000007          2.3220433822274122E-013
  -88.665000000000006          2.1545912027177289E-013
  -88.650000000000006          1.9567355548366638E-013
  -88.635000000000005          1.7309310723027244E-013
  -88.620000000000005          1.4802320881610737E-013
  -88.605000000000004          1.2081997999725119E-013
  -88.590000000000003          9.1878232994814513E-014
  -88.575000000000003          6.1617201683843159E-014
  -88.560000000000002          3.0464312442048808E-014
  -88.545000000000002         -1.1625702960401827E-015
  -88.530000000000001         -3.2873809468862702E-014
  -88.515000000000001         -6.4326914292218290E-014
  -88.500000000000000         -9.5245012777297328E-014
  -88.484999999999999         -1.2543400563017060E-013
  -88.469999999999999         -1.5479773767066579E-013
  -88.454999999999998         -1.8335016122549008E-013
  -88.439999999999998         -2.1122406395571863E-013
  -88.424999999999997         -2.3867526336394940E-013
  -88.409999999999997         -2.6608210535079835E-013
  -88.394999999999996         -2.9393948755042365E-013
  -88.379999999999995         -3.2284724481475291E-013
  -88.364999999999995         -3.5349300526663074E-013
  -88.349999999999994         -3.8662923231881641E-013
  -88.334999999999994         -4.2304517094277072E-013
  -88.319999999999993         -4.6353421318326427E-013
  -88.305000000000007         -5.0885727923000168E-013
  -88.290000000000006         -5.5970354219392338E-013
  -88.275000000000006         -6.1664947237013990E-013
  -88.260000000000005         -6.8011774597559471E-013
  -88.245000000000005         -7.5033761755965989E-013
  -88.230000000000004         -8.2730805713027156E-013
  -88.215000000000003         -9.1076549513929850E-013
  -88.200000000000003         -1.0001580726809456E-012
  -88.185000000000002         -1.0946269932143871E-012
  -88.170000000000002         -1.1929977405261694E-012
  -88.155000000000001         -1.2937810545121664E-012
  -88.140000000000001         -1.3951849658216942E-012
  -88.125000000000000         -1.4951386483053053E-012
  -88.109999999999999         -1.5913285229471330E-012
  -88.094999999999999         -1.6812449869785251E-012
  -88.079999999999998         -1.7622411776357927E-012
  -88.064999999999998         -1.8316008432162079E-012
  -88.049999999999997         -1.8866154298524673E-012
  -88.034999999999997         -1.9246661556171496E-012
  -88.019999999999996         -1.9433113972178173E-012
  -88.004999999999995         -1.9403745103729886E-012
  -87.989999999999995         -1.9140309996668048E-012
  -87.974999999999994         -1.8628907010737050E-012
  -87.959999999999994         -1.7860710740252861E-012
  -87.944999999999993         -1.6832614945991309E-012
  -87.930000000000007         -1.5547716109357013E-012
  -87.915000000000006         -1.4015640861439471E-012
  -87.900000000000006         -1.2252679339880279E-012
  -87.885000000000005         -1.0281702789508018E-012
  -87.870000000000005         -8.1318599857299612E-013
  -87.855000000000004         -5.8380378439512604E-013
  -87.840000000000003         -3.4400957017906297E-013
  -87.825000000000003         -9.8186941162228120E-014
  -87.810000000000002          1.4900269061125793E-013
  -87.795000000000002          3.9275855246052871E-013
  -87.780000000000001          6.2829353265209109E-013
  -87.765000000000001          8.5099868775070919E-013
  -87.750000000000000          1.0566133471640038E-012
  -87.734999999999999          1.2413967423463568E-012
  -87.719999999999999          1.4022947299879851E-012
  -87.704999999999998          1.5370954292368011E-012
  -87.689999999999998          1.6445687043079027E-012
  -87.674999999999997          1.7245826077968984E-012
  -87.659999999999997          1.7781915263165304E-012
  -87.644999999999996          1.8076904990255160E-012
  -87.629999999999995          1.8166316975015695E-012
  -87.614999999999995          1.8098001396127383E-012
  -87.599999999999994          1.7931445174187988E-012
  -87.584999999999994          1.7736638980442310E-012
  -87.569999999999993          1.7592495385812534E-012
  -87.555000000000007          1.7584833329059579E-012
  -87.540000000000006          1.7803974440566694E-012
  -87.525000000000006          1.8341981579406141E-012
  -87.510000000000005          1.9289617646245372E-012
  -87.495000000000005          2.0733089724223053E-012
  -87.480000000000004          2.2750672873383948E-012
  -87.465000000000003          2.5409312241070348E-012
  -87.450000000000003          2.8761303234869917E-012
  -87.435000000000002          3.2841166851954595E-012
  -87.420000000000002          3.7662832921836475E-012
  -87.405000000000001          4.3217226672331854E-012
  -87.390000000000001          4.9470397396611521E-012
  -87.375000000000000          5.6362228252615498E-012
  -87.359999999999999          6.3805874646327698E-012
  -87.344999999999999          7.1687937704123517E-012
  -87.329999999999998          7.9869444391533762E-012
  -87.314999999999998          8.8187703667363948E-012
  -87.299999999999997          9.6458899895290884E-012
  -87.284999999999997          1.0448157096443200E-011
  -87.269999999999996          1.1204079330973116E-011
  -87.254999999999995          1.1891307383216088E-011
  -87.239999999999995          1.2487174488873265E-011
  -87.224999999999994          1.2969284500508049E-011
  -87.209999999999994          1.3316127714380066E-011
  -87.194999999999993          1.3507710575066945E-011
  -87.180000000000007          1.3526175839106980E-011
  -87.165000000000006          1.3356401921960082E-011
  -87.150000000000006          1.2986558876881826E-011
  -87.135000000000005          1.2408602791114109E-011
  -87.120000000000005          1.1618688650072428E-011
  -87.105000000000004          1.0617493863274152E-011
  -87.090000000000003          9.4104255637939005E-012
  -87.075000000000003          8.0077116812460325E-012
  -87.060000000000002          6.4243623441873066E-012
  -87.045000000000002          4.6799946730458064E-012
  -87.030000000000001          2.7985263845869968E-012
  -87.015000000000001          8.0773587688223736E-013
  -87.000000000000000         -1.2613026942331906E-012
  -86.984999999999999         -3.3748978004594088E-012
  -86.969999999999999         -5.4975160708459203E-012
  -86.954999999999998         -7.5926409257021099E-012
  -86.939999999999998         -9.6236829269513713E-012
  -86.924999999999997         -1.1554931490798115E-011
  -86.909999999999997         -1.3352507467756514E-011
  -86.894999999999996         -1.4985295990199710E-011
  -86.879999999999995         -1.6425834650779514E-011
  -86.864999999999995         -1.7651118414119260E-011
  -86.849999999999994         -1.8643303914545051E-011
  -86.834999999999994         -1.9390293190535424E-011
  -86.819999999999993         -1.9886153487802538E-011
  -86.805000000000007         -2.0131389610877903E-011
  -86.790000000000006         -2.0133020250945322E-011
  -86.775000000000006         -1.9904473902432329E-011
  -86.760000000000005         -1.9465300898913185E-011
  -86.745000000000005         -1.8840684221088644E-011
  -86.730000000000004         -1.8060788975482467E-011
  -86.715000000000003         -1.7159938400790331E-011
  -86.700000000000003         -1.6175649361627187E-011
  -86.685000000000002         -1.5147553350525200E-011
  -86.670000000000002         -1.4116222947502255E-011
  -86.655000000000001         -1.3121957513628768E-011
  -86.640000000000001         -1.2203539394295415E-011
  -86.625000000000000         -1.1397014408609518E-011
  -86.609999999999999         -1.0734533921474831E-011
  -86.594999999999999         -1.0243292325462505E-011
  -86.579999999999998         -9.9445946269427488E-012
  -86.564999999999998         -9.8530923003936621E-012
  -86.549999999999997         -9.9762134317393780E-012
  -86.534999999999997         -1.0313808834760962E-011
  -86.519999999999996         -1.0858035824623524E-011
  -86.504999999999995         -1.1593481383243009E-011
  -86.489999999999995         -1.2497537726918750E-011
  -86.474999999999994         -1.3541015531082223E-011
  -86.459999999999994         -1.4688986138544635E-011
  -86.444999999999993         -1.5901831934561628E-011
  -86.430000000000007         -1.7136469326883841E-011
  -86.415000000000006         -1.8347719177302935E-011
  -86.400000000000006         -1.9489779581882694E-011
  -86.385000000000005         -2.0517740284553554E-011
  -86.370000000000005         -2.1389114437941892E-011
  -86.355000000000004         -2.2065320057218507E-011
  -86.340000000000003         -2.2513064329432453E-011
  -86.325000000000003         -2.2705571797732027E-011
  -86.310000000000002         -2.2623628664897311E-011
  -86.295000000000002         -2.2256379031415641E-011
  -86.280000000000001         -2.1601860925035687E-011
  -86.265000000000001         -2.0667223141201951E-011
  -86.250000000000000         -1.9468635037434012E-011
  -86.234999999999999         -1.8030875403862723E-011
  -86.219999999999999         -1.6386576123794683E-011
  -86.204999999999998         -1.4575167461838845E-011
  -86.189999999999998         -1.2641527581680467E-011
  -86.174999999999997         -1.0634390937291904E-011
  -86.159999999999997         -8.6045346195384731E-012
  -86.144999999999996         -6.6028194196932066E-012
  -86.129999999999995         -4.6781415546925942E-012
  -86.114999999999995         -2.8753557694549681E-012
  -86.099999999999994         -1.2332489630201282E-012
  -86.084999999999994          2.1736646228613654E-013
  -86.069999999999993          1.4553655589694126E-012
  -86.055000000000007          2.4707614426633384E-012
  -86.040000000000006          3.2658311818756225E-012
  -86.025000000000006          3.8558583409509239E-012
  -86.010000000000005          4.2694493773698383E-012
  -85.995000000000005          4.5483890091790879E-012
  -85.980000000000004          4.7470144134975634E-012
  -85.965000000000003          4.9311028350873531E-012
  -85.950000000000003          5.1762830133306181E-012
  -85.935000000000002          5.5659981831879257E-012
  -85.920000000000002          6.1890601150971225E-012
  -85.905000000000001          7.1368536080917977E-012
  -85.890000000000001          8.5002638608444592E-012
  -85.875000000000000          1.0366407385276055E-011
  -85.859999999999999          1.2815266209331710E-011
  -85.844999999999999          1.5916315140862558E-011
  -85.829999999999998          1.9725271763193497E-011
  -85.814999999999998          2.4281044189167211E-011
  -85.799999999999997          2.9603014484180790E-011
  -85.784999999999997          3.5688747096473961E-011
  -85.769999999999996          4.2512209030842740E-011
  -85.754999999999995          5.0022597175569672E-011
  -85.739999999999995          5.8143826558998413E-011
  -85.724999999999994          6.6774738516350851E-011
  -85.709999999999994          7.5790061726532798E-011
  -85.694999999999993          8.5042112241140444E-011
  -85.680000000000007          9.4363274139031006E-011
  -85.665000000000006          1.0356914631470815E-010
  -85.650000000000006          1.1246237274775694E-010
  -85.635000000000005          1.2083702094489723E-010
  -85.620000000000005          1.2848345998239807E-010
  -85.605000000000004          1.3519355079871787E-010
  -85.590000000000003          1.4076609322621891E-010
  -85.575000000000003          1.4501233547292713E-010
  -85.560000000000002          1.4776138645977710E-010
  -85.545000000000002          1.4886547550219120E-010
  -85.530000000000001          1.4820469851350992E-010
  -85.515000000000001          1.4569137563036350E-010
  -85.500000000000000          1.4127357617077507E-010
  -85.484999999999999          1.3493801909181258E-010
  -85.469999999999999          1.2671191873536714E-010
  -85.454999999999998          1.1666395627329962E-010
  -85.439999999999998          1.0490409929619915E-010
  -85.424999999999997          9.1582449956995049E-011
  -85.409999999999997          7.6886948197074645E-011
  -85.394999999999996          6.1040048016103299E-011
  -85.379999999999995          4.4294418827250936E-011
  -85.364999999999995          2.6927703122847646E-011
  -85.349999999999994          9.2365420867324133E-012
  -85.334999999999994         -8.4700779376389868E-012
  -85.319999999999993         -2.5877940415530709E-011
  -85.305000000000007         -4.2675019767957068E-011
  -85.290000000000006         -5.8559018745185654E-011
  -85.275000000000006         -7.3244799114746684E-011
  -85.260000000000005         -8.6471524385345333E-011
  -85.245000000000005         -9.8009322879732963E-011
  -85.230000000000004         -1.0766525865291143E-010
  -85.215000000000003         -1.1528844545694028E-010
  -85.200000000000003         -1.2077421007727906E-010
  -85.185000000000002         -1.2406703442380262E-010
  -85.170000000000002         -1.2516239433768561E-010
  -85.155000000000001         -1.2410718286393063E-010
  -85.140000000000001         -1.2099894697303881E-010
  -85.125000000000000         -1.1598372956500569E-010
  -85.109999999999999         -1.0925266247241439E-010
  -85.094999999999999         -1.0103741454603465E-010
  -85.079999999999998         -9.1604515639609474E-011
  -85.064999999999998         -8.1248834049585383E-011
  -85.049999999999997         -7.0286242104256047E-011
  -85.034999999999997         -5.9045761335863034E-011
  -85.019999999999996         -4.7861346830213591E-011
  -85.004999999999995         -3.7063598717912427E-011
  -84.989999999999995         -2.6971541319809056E-011
  -84.974999999999994         -1.7884763114928148E-011
  -84.959999999999994         -1.0076106615741764E-011
  -84.944999999999993         -3.7851150165579828E-012
  -84.930000000000007          7.8759102104669632E-013
  -84.915000000000006          3.4848400207176944E-012
  -84.900000000000006          4.1962371077897131E-012
  -84.885000000000005          2.8601964546792757E-012
  -84.870000000000005         -5.3536396236314454E-013
  -84.855000000000004         -5.9536720171948776E-012
  -84.840000000000003         -1.3311062321830214E-011
  -84.825000000000003         -2.2480170502880981E-011
  -84.810000000000002         -3.3294259710325846E-011
  -84.795000000000002         -4.5552523558756164E-011
  -84.780000000000001         -5.9026200593947920E-011
  -84.765000000000001         -7.3465303285225048E-011
  -84.750000000000000         -8.8605733861157887E-011
  -84.734999999999999         -1.0417655627037448E-010
  -84.719999999999999         -1.1990725079513709E-010
  -84.704999999999998         -1.3553463906745833E-010
  -84.689999999999998         -1.5080930948485616E-010
  -84.674999999999997         -1.6550136261450632E-010
  -84.659999999999997         -1.7940524066339947E-010
  -84.644999999999996         -1.9234358550335173E-010
  -84.629999999999995         -2.0416995871741506E-010
  -84.614999999999995         -2.1477031264538482E-010
  -84.599999999999994         -2.2406330957291942E-010
  -84.584999999999994         -2.3199939191975716E-010
  -84.569999999999993         -2.3855870057154505E-010
  -84.555000000000007         -2.4374793849979426E-010
  -84.540000000000006         -2.4759633232562805E-010
  -84.525000000000006         -2.5015076121626123E-010
  -84.510000000000005         -2.5147045557005754E-010
  -84.495000000000005         -2.5162116834565040E-010
  -84.480000000000004         -2.5066948516894172E-010
  -84.465000000000003         -2.4867696790664695E-010
  -84.450000000000003         -2.4569490886250378E-010
  -84.435000000000002         -2.4175958457384183E-010
  -84.420000000000002         -2.3688814798639157E-010
  -84.405000000000001         -2.3107576962999588E-010
  -84.390000000000001         -2.2429372248389257E-010
  -84.375000000000000         -2.1648874359847525E-010
  -84.359999999999999         -2.0758370022910810E-010
  -84.344999999999999         -1.9747965762650921E-010
  -84.329999999999998         -1.8605907092794638E-010
  -84.314999999999998         -1.7319043421615277E-010
  -84.299999999999997         -1.5873387326781341E-010
  -84.284999999999997         -1.4254770974719833E-010
  -84.269999999999996         -1.2449587194485190E-010
  -84.254999999999995         -1.0445563858318963E-010
  -84.239999999999995         -8.2325743444577881E-011
  -84.224999999999994         -5.8034386324345988E-011
  -84.209999999999994         -3.1546907447443928E-011
  -84.194999999999993         -2.8727957512852953E-012
  -84.180000000000007          2.7928170193147750E-011
  -84.165000000000006          6.0741016383314417E-011
  -84.150000000000006          9.5392083121481619E-011
  -84.135000000000005          1.3164713763558211E-010
  -84.120000000000005          1.6921128387359374E-010
  -84.105000000000004          2.0773079090208313E-010
  -84.090000000000003          2.4679674970329302E-010
  -84.075000000000003          2.8595081857929472E-010
  -84.060000000000002          3.2469260613510187E-010
  -84.045000000000002          3.6248898327428947E-010
  -84.030000000000001          3.9878469970666686E-010
  -84.015000000000001          4.3301456864597299E-010
  -84.000000000000000          4.6461634539696206E-010
  -83.984999999999999          4.9304438309860643E-010
  -83.969999999999999          5.1778359377863126E-010
  -83.954999999999998          5.3836346491920040E-010
  -83.939999999999998          5.5437110457745575E-010
  -83.924999999999997          5.6546400895030047E-010
  -83.909999999999997          5.7138099807119147E-010
  -83.894999999999996          5.7195204128390742E-010
  -83.879999999999995          5.6710586227026738E-010
  -83.864999999999995          5.5687510158719533E-010
  -83.849999999999994          5.4139970284694527E-010
  -83.834999999999994          5.2092696822825246E-010
  -83.819999999999993          4.9580933803028415E-010
  -83.805000000000007          4.6649967222478494E-010
  -83.790000000000006          4.3354342338375318E-010
  -83.775000000000006          3.9756853364991684E-010
  -83.760000000000005          3.5927325003903832E-010
  -83.745000000000005          3.1941146949598931E-010
  -83.730000000000004          2.7877700148337681E-010
  -83.715000000000003          2.3818591543545153E-010
  -83.700000000000003          1.9845847187838217E-010
  -83.685000000000002          1.6040045680565385E-010
  -83.670000000000002          1.2478459932019348E-010
  -83.655000000000001          9.2332468060174477E-011
  -83.640000000000001          6.3697484786739977E-011
  -83.625000000000000          3.9449273708802579E-011
  -83.609999999999999          2.0059901656432899E-011
  -83.594999999999999          5.8923152815304469E-012
  -83.579999999999998         -2.8087011882949042E-012
  -83.564999999999998         -5.9228238633024510E-012
  -83.549999999999997         -3.4575773234096774E-012
  -83.534999999999997          4.4512848268452032E-012
  -83.519999999999996          1.7542398089709366E-011
  -83.504999999999995          3.5434353368168914E-011
  -83.489999999999995          5.7634043371113108E-011
  -83.474999999999994          8.3547557760965674E-011
  -83.459999999999994          1.1249339654240131E-010
  -83.444999999999993          1.4371755174824585E-010
  -83.430000000000007          1.7641017813208038E-010
  -83.415000000000006          2.0972332204216571E-010
  -83.400000000000006          2.4278931642918167E-010
  -83.385000000000005          2.7473931463184442E-010
  -83.370000000000005          3.0472169232353963E-010
  -83.355000000000004          3.3191951964717248E-010
  -83.340000000000003          3.5556693700478093E-010
  -83.325000000000003          3.7496414306836812E-010
  -83.310000000000002          3.8949035663371490E-010
  -83.295000000000002          3.9861480782832359E-010
  -83.280000000000001          4.0190520356198078E-010
  -83.265000000000001          3.9903386150896836E-010
  -83.250000000000000          3.8978134608846915E-010
  -83.234999999999999          3.7403741215413788E-010
  -83.219999999999999          3.5179970048204723E-010
  -83.204999999999998          3.2316999076797970E-010
  -83.189999999999998          2.8834831744539713E-010
  -83.174999999999997          2.4762547568002446E-010
  -83.159999999999997          2.0137377876316975E-010
  -83.144999999999996          1.5003653874856582E-010
  -83.129999999999995          9.4116908710972780E-011
  -83.114999999999995          3.4166024176496279E-011
  -83.099999999999994         -2.9228917897139439E-011
  -83.084999999999994         -9.5456427484652551E-011
  -83.069999999999993         -1.6389196944022189E-010
  -83.055000000000007         -2.3390850367732696E-010
  -83.040000000000006         -3.0488586655330607E-010
  -83.025000000000006         -3.7621905590867755E-010
  -83.010000000000005         -4.4732523241108879E-010
  -82.995000000000005         -5.1764903474804669E-010
  -82.980000000000004         -5.8666688174113801E-010
  -82.965000000000003         -6.5388938708110800E-010
  -82.950000000000003         -7.1886280261779234E-010
  -82.935000000000002         -7.8116918489357090E-010
  -82.920000000000002         -8.4042556247609923E-010
  -82.905000000000001         -8.9628215960146917E-010
  -82.890000000000001         -9.4842034226161331E-010
  -82.875000000000000         -9.9654984264674340E-010
  -82.859999999999999         -1.0404063166546962E-009
  -82.844999999999999         -1.0797488458891280E-009
  -82.829999999999998         -1.1143576061911631E-009
  -82.814999999999998         -1.1440324243494615E-009
  -82.799999999999997         -1.1685917788994971E-009
  -82.784999999999997         -1.1878728001235572E-009
  -82.769999999999996         -1.2017321582291629E-009
  -82.754999999999995         -1.2100475066390004E-009
  -82.739999999999995         -1.2127202575484830E-009
  -82.724999999999994         -1.2096791346394298E-009
  -82.709999999999994         -1.2008835037491394E-009
  -82.694999999999993         -1.1863285909186061E-009
  -82.680000000000007         -1.1660494791954079E-009
  -82.665000000000006         -1.1401264377042253E-009
  -82.650000000000006         -1.1086889184497295E-009
  -82.635000000000005         -1.0719198861863788E-009
  -82.620000000000005         -1.0300589270428873E-009
  -82.605000000000004         -9.8340457999057662E-010
  -82.590000000000003         -9.3231489195488848E-010
  -82.575000000000003         -8.7720769537114052E-010
  -82.560000000000002         -8.1855794364926737E-010
  -82.545000000000002         -7.5689438050474678E-010
  -82.530000000000001         -6.9279409986577889E-010
  -82.515000000000001         -6.2687549595707992E-010
  -82.500000000000000         -5.5978938151568514E-010
  -82.484999999999999         -4.9220916231718093E-010
  -82.469999999999999         -4.2481901330049254E-010
  -82.454999999999998         -3.5830166611461323E-010
  -82.439999999999998         -2.9332508644230870E-010
  -82.424999999999997         -2.3052891540142895E-010
  -82.409999999999997         -1.7051082767949310E-010
  -82.394999999999996         -1.1381324355186351E-010
  -82.379999999999995         -6.0910790300461315E-011
  -82.364999999999995         -1.2198825283249448E-011
  -82.349999999999994          3.2016497092390850E-011
  -82.334999999999994          7.1526430611701386E-011
  -82.319999999999993          1.0622577817365197E-010
  -82.305000000000007          1.3611667348811807E-010
  -82.290000000000006          1.6130999314079020E-010
  -82.275000000000006          1.8202411800061213E-010
  -82.260000000000005          1.9858123478933010E-010
  -82.245000000000005          2.1140100781025239E-010
  -82.230000000000004          2.2099191920865735E-010
  -82.215000000000003          2.2794033327500074E-010
  -82.200000000000003          2.3289775663570822E-010
  -82.185000000000002          2.3656632208712836E-010
  -82.170000000000002          2.3968313445088540E-010
  -82.155000000000001          2.4300375600638802E-010
  -82.140000000000001          2.4728527558970370E-010
  -82.125000000000000          2.5326946095916014E-010
  -82.109999999999999          2.6166627198342951E-010
  -82.094999999999999          2.7313840078591056E-010
  -82.079999999999998          2.8828717191231590E-010
  -82.064999999999998          3.0763985803261562E-010
  -82.049999999999997          3.3163927160018147E-010
  -82.034999999999997          3.6063535491237531E-010
  -82.019999999999996          3.9487915715064048E-010
  -82.004999999999995          4.3451947595585239E-010
  -81.989999999999995          4.7960180271644504E-010
  -81.974999999999994          5.3006971034719186E-010
  -81.960000000000008          5.8576882233651872E-010
  -81.944999999999993          6.4645239161720269E-010
  -81.930000000000007          7.1178934968330054E-010
  -81.915000000000006          7.8137341041895070E-010
  -81.900000000000006          8.5473356170595594E-010
  -81.885000000000005          9.3134555623208826E-010
  -81.870000000000005          1.0106433467882425E-009
  -81.855000000000004          1.0920309101436487E-009
  -81.840000000000003          1.1748938488764793E-009