  -90.000000000000000          0.0000000000000000     
  -89.984999999999999          0.0000000000000000     
  -89.969999999999999          0.0000000000000000     
  -89.954999999999998          0.0000000000000000     
  -89.939999999999998          1.4850567407620573E-020
  -89.924999999999997          1.3204479281109755E-019
  -89.909999999999997          6.5057124452078555E-019
  -89.894999999999996          2.3443435933095065E-018
  -89.879999999999995          6.8933315549968888E-018
  -89.864999999999995          1.7518543864627803E-017
  -89.849999999999994          3.9843066645192801E-017
  -89.834999999999994          8.2980555442167895E-017
  -89.819999999999993          1.6082548395068396E-016
  -89.805000000000007          2.9348730769361965E-016
  -89.790000000000006          5.0877494550994619E-016
  -89.775000000000006          8.4360129914761795E-016
  -89.760000000000005          1.3451406245243219E-015
  -89.745000000000005          2.0715412570130329E-015
  -89.730000000000004          3.0919707424162347E-015
  -89.715000000000003          4.4857530809695820E-015
  -89.700000000000003          6.3403600945866057E-015
  -89.685000000000002          8.7480292243003258E-015
  -89.670000000000002          1.1800805422906499E-014
  -89.655000000000001          1.5583869711712807E-014
  -89.640000000000001          2.0167059957220367E-014
  -89.625000000000000          2.5594592973341747E-014
  -89.609999999999999          3.1873097639922160E-014
  -89.594999999999999          3.8958172489866535E-014
  -89.579999999999998          4.6739809966183168E-014
  -89.564999999999998          5.5027166769592087E-014
  -89.549999999999997          6.3533257973168167E-014
  -89.534999999999997          7.1860323681144367E-014
  -89.519999999999996          7.9486655972516029E-014
  -89.504999999999995          8.5755743326788869E-014
  -89.489999999999995          8.9868779464593457E-014
  -89.474999999999994          9.0881363307322716E-014
  -89.459999999999994          8.7705369225879459E-014
  -89.444999999999993          7.9116854940271958E-014
  -89.430000000000007          6.3770684696415336E-014
  -89.415000000000006          4.0222372551775368E-014
  -89.400000000000006          6.9575832623719209E-015
  -89.385000000000005         -3.7570779956109038E-014
  -89.370000000000005         -9.4898068082101966E-014
  -89.355000000000004         -1.6649653660980035E-013
  -89.340000000000003         -2.5371808061620815E-013
  -89.325000000000003         -3.5773234418126632E-013
  -89.310000000000002         -4.7946179361837982E-013
  -89.295000000000002         -6.1951550660299670E-013
  -89.280000000000001         -7.7812425556753051E-013
  -89.265000000000001         -9.5507900633312603E-013
  -89.250000000000000         -1.1496749732775591E-012
  -89.234999999999999         -1.3606652696923627E-012
  -89.219999999999999         -1.5862249664808092E-012
  -89.204999999999998         -1.8239290286437004E-012
  -89.189999999999998         -2.0707470026887220E-012
  -89.174999999999997         -2.3230538586521687E-012
  -89.159999999999997         -2.5766621909034670E-012
  -89.144999999999996         -2.8268730672270648E-012
  -89.129999999999995         -3.0685486703679876E-012
  -89.114999999999995         -3.2962031541738934E-012
  -89.099999999999994         -3.5041143164188382E-012
  -89.084999999999994         -3.6864513178191949E-012
  -89.069999999999993         -3.8374160619969455E-012
  -89.055000000000007         -3.9513965016668706E-012
  -89.040000000000006         -4.0231242816324286E-012
  -89.025000000000006         -4.0478358512285872E-012
  -89.010000000000005         -4.0214290231155303E-012
  -88.995000000000005         -3.9406108584549848E-012
  -88.980000000000004         -3.8030286385326573E-012
  -88.965000000000003         -3.6073813207415650E-012
  -88.950000000000003         -3.3535043231919248E-012
  -88.935000000000002         -3.0424217832558664E-012
  -88.920000000000002         -2.6763641216426270E-012
  -88.905000000000001         -2.2587454909933635E-012
  -88.890000000000001         -1.7941002416338447E-012
  -88.875000000000000         -1.2879765613413308E-012
  -88.859999999999999         -7.4678907805922345E-013
  -88.844999999999999         -1.7763140134144373E-013
  -88.829999999999998          4.1194711487488322E-013
  -88.814999999999998          1.0141943708463774E-012
  -88.799999999999997          1.6214311794257585E-012
  -88.784999999999997          2.2263425911855927E-012
  -88.769999999999996          2.8222721468879053E-012
  -88.754999999999995          3.4035107631530392E-012
  -88.739999999999995          3.9655674577421252E-012
  -88.724999999999994          4.5054108013808936E-012
  -88.709999999999994          5.0216679772785433E-012
  -88.694999999999993          5.5147717989423306E-012
  -88.680000000000007          5.9870472295109334E-012
  -88.665000000000006          6.4427226574570451E-012
  -88.650000000000006          6.8878683139039776E-012
  -88.635000000000005          7.3302492548110720E-012
  -88.620000000000005          7.7790994132409530E-012
  -88.605000000000004          8.2448110838573285E-012
  -88.590000000000003          8.7385489469515854E-012
  -88.575000000000003          9.2718003413816419E-012
  -88.560000000000002          9.8558617864230591E-012
  -88.545000000000002          1.0501286472341942E-011
  -88.530000000000001          1.1217310934286129E-011
  -88.515000000000001          1.2011270450473788E-011
  -88.500000000000000          1.2888031787616772E-011
  -88.484999999999999          1.3849463242898707E-011
  -88.469999999999999          1.4893966268636483E-011
  -88.454999999999998          1.6016092965753792E-011
  -88.439999999999998          1.7206253782875436E-011
  -88.424999999999997          1.8450562258576220E-011
  -88.409999999999997          1.9730807265805339E-011
  -88.394999999999996          2.1024572707806222E-011
  -88.379999999999995          2.2305520278043112E-011
  -88.364999999999995          2.3543821406346588E-011
  -88.349999999999994          2.4706741860724968E-011
  -88.334999999999994          2.5759380739565074E-011
  -88.319999999999993          2.6665529159752843E-011
  -88.305000000000007          2.7388643436543347E-011
  -88.290000000000006          2.7892898060710714E-011
  -88.275000000000006          2.8144292452125796E-011
  -88.260000000000005          2.8111781999462515E-011
  -88.245000000000005          2.7768379609605098E-011
  -88.230000000000004          2.7092220827862334E-011
  -88.215000000000003          2.6067507527538503E-011
  -88.200000000000003          2.4685340577201842E-011
  -88.185000000000002          2.2944373831434994E-011
  -88.170000000000002          2.0851261689491807E-011
  -88.155000000000001          1.8420889813519636E-011
  -88.140000000000001          1.5676345638260258E-011
  -88.125000000000000          1.2648626937505902E-011
  -88.109999999999999          9.3760815084165117E-012
  -88.094999999999999          5.9035766726556194E-012
  -88.079999999999998          2.2814159415796009E-012
  -88.064999999999998         -1.4359820841094995E-012
  -88.049999999999997         -5.1916075605173972E-012
  -88.034999999999997         -8.9275496717444724E-012
  -88.019999999999996         -1.2586806596992517E-011
  -88.004999999999995         -1.6115161288743352E-011
  -87.989999999999995         -1.9463061370905699E-011
  -87.974999999999994         -2.2587452741529290E-011
  -87.959999999999994         -2.5453490010152180E-011
  -87.944999999999993         -2.8036059585012651E-011
  -87.930000000000007         -3.0321068572591869E-011
  -87.915000000000006         -3.2306428365824758E-011
  -87.900000000000006         -3.4002672205657447E-011
  -87.885000000000005         -3.5433211920121721E-011
  -87.870000000000005         -3.6634126288070945E-011
  -87.855000000000004         -3.7653533069281764E-011
  -87.840000000000003         -3.8550503067558139E-011
  -87.825000000000003         -3.9393509287943829E-011
  -87.810000000000002         -4.0258470168641480E-011
  -87.795000000000002         -4.1226404234873115E-011
  -87.780000000000001         -4.2380748216386266E-011
  -87.765000000000001         -4.3804390670310056E-011
  -87.750000000000000         -4.5576549478898443E-011
  -87.734999999999999         -4.7769514038842331E-011
  -87.719999999999999         -5.0445404797816451E-011
  -87.704999999999998         -5.3653026466093934E-011
  -87.689999999999998         -5.7424932864424960E-011
  -87.674999999999997         -6.1774793613800227E-011
  -87.659999999999997         -6.6695218792212074E-011
  -87.644999999999996         -7.2156024211178504E-011
  -87.629999999999995         -7.8103176703869792E-011
  -87.614999999999995         -8.4458363913686441E-011
  -87.599999999999994         -9.1119271850015338E-011
  -87.584999999999994         -9.7960702050148285E-011
  -87.569999999999993         -1.0483635487501530E-010
  -87.555000000000007         -1.1158147322776202E-010
  -87.540000000000006         -1.1801613852835402E-010
  -87.525000000000006         -1.2394928139425332E-010
  -87.510000000000005         -1.2918326131039493E-010
  -87.495000000000005         -1.3351893202173670E-010
  -87.480000000000004         -1.3676103305382270E-010
  -87.465000000000003         -1.3872386572799655E-010
  -87.450000000000003         -1.3923688590988803E-010
  -87.435000000000002         -1.3815029675789958E-010
  -87.420000000000002         -1.3534035003814893E-010
  -87.405000000000001         -1.3071406457232371E-010
  -87.390000000000001         -1.2421347284075068E-010
  -87.375000000000000         -1.1581902104040864E-010
  -87.359999999999999         -1.0555198382000697E-010
  -87.344999999999999         -9.3475976958856677E-011
  -87.329999999999998         -7.9697255739308304E-011
  -87.314999999999998         -6.4363875340589516E-011
  -87.299999999999997         -4.7663626517868707E-011
  -87.284999999999997         -2.9820784730461014E-011
  -87.269999999999996         -1.1091717821987146E-011
  -87.254999999999995          8.2405722870437792E-012
  -87.239999999999995          2.7872855065669278E-011
  -87.224999999999994          4.7488856597110995E-011
  -87.209999999999994          6.6767050221905322E-011
  -87.194999999999993          8.5388869586200400E-011
  -87.180000000000007          1.0304707087627207E-010
  -87.165000000000006          1.1945404387869729E-010
  -87.150000000000006          1.3434980905557836E-010
  -87.135000000000005          1.4750946297770184E-010
  -87.120000000000005          1.5874986047936801E-010
  -87.105000000000004          1.6793522128466520E-010
  -87.090000000000003          1.7498162641071957E-010
  -87.075000000000003          1.7986005740322497E-010
  -87.060000000000002          1.8259803391540430E-010
  -87.045000000000002          1.8327965534137292E-010
  -87.030000000000001          1.8204394935938950E-010
  -87.015000000000001          1.7908172167402370E-010
  -87.000000000000000          1.7463075430157460E-010
  -86.984999999999999          1.6896961607670846E-010
  -86.969999999999999          1.6241014089146688E-010
  -86.954999999999998          1.5528880958903812E-010
  -86.939999999999998          1.4795727143468440E-010
  -86.924999999999997          1.4077222720842997E-010
  -86.909999999999997          1.3408495147526622E-010
  -86.894999999999996          1.2823089812208366E-010
  -86.879999999999995          1.2351951406142092E-010
  -86.864999999999995          1.2022460804672619E-010
  -86.849999999999994          1.1857576032170414E-010
  -86.834999999999994          1.1875073147038506E-010
  -86.819999999999993          1.2086939782385286E-010
  -86.805000000000007          1.2498932444593436E-010
  -86.790000000000006          1.3110304508678894E-010
  -86.775000000000006          1.3913728502679135E-010
  -86.760000000000005          1.4895415456628314E-010
  -86.745000000000005          1.6035424377225382E-010
  -86.730000000000004          1.7308170174867854E-010
  -86.715000000000003          1.8683091185245360E-010
  -86.700000000000003          2.0125494326617144E-010
  -86.685000000000002          2.1597515442728366E-010
  -86.670000000000002          2.3059203158037889E-010
  -86.655000000000001          2.4469665182991207E-010
  -86.640000000000001          2.5788263191550698E-010
  -86.625000000000000          2.6975804923168312E-010
  -86.609999999999999          2.7995697426952404E-010
  -86.594999999999999          2.8815039243568208E-010
  -86.579999999999998          2.9405597401499506E-010
  -86.564999999999998          2.9744653962104906E-010
  -86.549999999999997          2.9815663826759931E-010
  -86.534999999999997          2.9608732132757609E-010
  -86.519999999999996          2.9120880706834384E-010
  -86.504999999999995          2.8356092474091099E-010
  -86.489999999999995          2.7325106066733440E-010
  -86.474999999999994          2.6045018919340635E-010
  -86.459999999999994          2.4538640563953606E-010
  -86.444999999999993          2.2833673840594315E-010
  -86.430000000000007          2.0961701818755785E-010
  -86.415000000000006          1.8957047043244302E-010
  -86.400000000000006          1.6855512818825247E-010
  -86.385000000000005          1.4693068983717694E-010
  -86.370000000000005          1.2504504376398273E-010
  -86.355000000000004          1.0322112609095768E-010
  -86.340000000000003          8.1744389035520726E-011
  -86.325000000000003          6.0851490513158524E-011
  -86.310000000000002          4.0720531113702663E-011
  -86.295000000000002          2.1463237437346905E-011
  -86.280000000000001          3.1194478423979266E-012
  -86.265000000000001         -1.4345871712784231E-011
  -86.250000000000000         -3.1042876602604963E-011
  -86.234999999999999         -4.7154280480299349E-011
  -86.219999999999999         -6.2929952915347087E-011
  -86.204999999999998         -7.8678813464350128E-011
  -86.189999999999998         -9.4758131896632847E-011
  -86.174999999999997         -1.1156060103489907E-010
  -86.159999999999997         -1.2949949446117159E-010
  -86.144999999999996         -1.4899231848275463E-010
  -86.129999999999995         -1.7044354816420082E-010
  -86.114999999999995         -1.9422687069781119E-010
  -86.099999999999994         -2.2066765081873996E-010
  -86.084999999999994         -2.5002608317059583E-010
  -86.069999999999993         -2.8248176020539972E-010
  -86.055000000000007         -3.1811997480701848E-010
  -86.040000000000006         -3.5692074296100884E-010
  -86.025000000000006         -3.9875036605963032E-010
  -86.010000000000005         -4.4335649040938563E-010
  -85.995000000000005         -4.9036658067436178E-010
  -85.980000000000004         -5.3929039012245994E-010
  -85.965000000000003         -5.8952576154069902E-010
  -85.950000000000003         -6.4036875802031545E-010
  -85.935000000000002         -6.9102706889978549E-010
  -85.920000000000002         -7.4063666311019460E-010
  -85.905000000000001         -7.8828188421198320E-010
  -85.890000000000001         -8.3301715525507802E-010
  -85.875000000000000         -8.7389140368543394E-010
  -85.859999999999999         -9.0997326340769291E-010
  -85.844999999999999         -9.4037655440359913E-010
  -85.829999999999998         -9.6428609541732158E-010
  -85.814999999999998         -9.8098185130623961E-010
  -85.799999999999997         -9.8986185914640146E-010
  -85.784999999999997         -9.9046215673581628E-010
  -85.769999999999996         -9.8247410207363828E-010
  -85.754999999999995         -9.6575747399185730E-010
  -85.739999999999995         -9.4034990905100813E-010
  -85.724999999999994         -9.0647100936536162E-010
  -85.709999999999994         -8.6452217606947102E-010
  -85.694999999999993         -8.1508144678110739E-010
  -85.680000000000007         -7.5889333706058437E-010
  -85.665000000000006         -6.9685374137762324E-010
  -85.650000000000006         -6.2999089278648057E-010
  -85.635000000000005         -5.5944182619782623E-010
  -85.620000000000005         -4.8642595507075725E-010
  -85.605000000000004         -4.1221542845804038E-010
  -85.590000000000003         -3.3810415578372499E-010
  -85.575000000000003         -2.6537513853064354E-010
  -85.560000000000002         -1.9526812111703151E-010
  -85.545000000000002         -1.2894760259563043E-010
  -85.530000000000001         -6.7472590015160705E-011
  -85.515000000000001         -1.1768846314152981E-011
  -85.500000000000000          3.7395652546790004E-011
  -85.484999999999999          7.9431190791456885E-011
  -85.469999999999999          1.1394223758953714E-010
  -85.454999999999998          1.4073826826166425E-010
  -85.439999999999998          1.5983905865546433E-010
  -85.424999999999997          1.7147448738707993E-010
  -85.409999999999997          1.7607859614798826E-010
  -85.394999999999996          1.7427809195780242E-010
  -85.379999999999995          1.6687567994111419E-010
  -85.364999999999995          1.5482855275639196E-010
  -85.349999999999994          1.3922271668853625E-010
  -85.334999999999994          1.2124383441669551E-010
  -85.319999999999993          1.0214533385788371E-010
  -85.305000000000007          8.3214810042697707E-011
  -85.290000000000006          6.5739566568190355E-011
  -85.275000000000006          5.0972306236962694E-011
  -85.260000000000005          4.0097918041492875E-011
  -85.245000000000005          3.4202356224977137E-011
  -85.230000000000004          3.4244419799822623E-011
  -85.215000000000003          4.1031240904931821E-011
  -85.200000000000003          5.5198172421722091E-011
  -85.185000000000002          7.7193584857582209E-011
  -85.170000000000002          1.0726898536095320E-010
  -85.155000000000001          1.4547466009595666E-010
  -85.140000000000001          1.9166090936550972E-010
  -85.125000000000000          2.4548477139951785E-010
  -85.109999999999999          3.0642202664132867E-010
  -85.094999999999999          3.7378375394858665E-010
  -85.079999999999998          4.4673736931954977E-010
  -85.064999999999998          5.2433096753290442E-010
  -85.049999999999997          6.0552018954496134E-010
  -85.034999999999997          6.8919747686635446E-010
  -85.019999999999996          7.7422146471661790E-010
  -85.004999999999995          8.5944701355700204E-010
  -84.989999999999995          9.4375374182220639E-010
  -84.974999999999994          1.0260728933175756E-009
  -84.959999999999994          1.1054117621256410E-009
  -84.944999999999993          1.1808742872432276E-009
  -84.930000000000007          1.2516780945048822E-009
  -84.915000000000006          1.3171672641476562E-009
  -84.900000000000006          1.3768197693053708E-009
  -84.885000000000005          1.4302508066776909E-009
  -84.870000000000005          1.4772106871063784E-009
  -84.855000000000004          1.5175789513932614E-009
  -84.840000000000003          1.5513536011368956E-009
  -84.825000000000003          1.5786369989001514E-009
  -84.810000000000002          1.5996185487310299E-009
  -84.795000000000002          1.6145550452151269E-009
  -84.780000000000001          1.6237496902604676E-009
  -84.765000000000001          1.6275297776147113E-009
  -84.750000000000000          1.6262257096499866E-009
  -84.734999999999999          1.6201496810808180E-009
  -84.719999999999999          1.6095774713065225E-009
  -84.704999999999998          1.5947319020881423E-009
  -84.689999999999998          1.5757700699836619E-009
  -84.674999999999997          1.5527743535415084E-009
  -84.659999999999997          1.5257471952523360E-009
  -84.644999999999996          1.4946104354152112E-009
  -84.629999999999995          1.4592095309851061E-009
  -84.614999999999995          1.4193214381563735E-009
  -84.599999999999994          1.3746668248160177E-009
  -84.584999999999994          1.3249260577552491E-009
  -84.569999999999993          1.2697584095278103E-009
  -84.555000000000007          1.2088229306428389E-009
  -84.540000000000006          1.1418018752706871E-009
  -84.525000000000006          1.0684242379710440E-009
  -84.510000000000005          9.8848929042105738E-010
  -84.495000000000005          9.0188900792043114E-010
  -84.480000000000004          8.0862838647277613E-010
  -84.465000000000003          7.0884320635400400E-010
  -84.450000000000003          6.0281368785553013E-010
  -84.435000000000002          4.9097437226919283E-010
  -84.420000000000002          3.7391859053492738E-010
  -84.405000000000001          2.5239815792943432E-010
  -84.390000000000001          1.2731753151751235E-010
  -84.375000000000000         -2.7764867228247114E-013
  -84.359999999999999         -1.2921703984591915E-010
  -84.344999999999999         -2.5822718963119939E-010
  -84.329999999999998         -3.8595762696935765E-010
  -84.314999999999998         -5.1101045617230056E-010
  -84.299999999999997         -6.3197314048579756E-010
  -84.284999999999997         -7.4745298839218322E-010
  -84.269999999999996         -8.5611312483635515E-010
  -84.254999999999995         -9.5670749100662533E-010
  -84.239999999999995         -1.0481157053376933E-009
  -84.224999999999994         -1.1293747048668479E-009
  -84.209999999999994         -1.1997072224545491E-009
  -84.194999999999993         -1.2585468223136331E-009
  -84.180000000000007         -1.3055562186892189E-009
  -84.165000000000006         -1.3406411536465157E-009
  -84.150000000000006         -1.3639571694312735E-009
  -84.135000000000005         -1.3759098305143880E-009
  -84.120000000000005         -1.3771482842983573E-009
  -84.105000000000004         -1.3685517163963823E-009
  -84.090000000000003         -1.3512091445733176E-009
  -84.075000000000003         -1.3263942166830134E-009
  -84.060000000000002         -1.2955332362452054E-009
  -84.045000000000002         -1.2601699683756351E-009
  -84.030000000000001         -1.2219258938017674E-009
  -84.015000000000001         -1.1824589085662751E-009
  -84.000000000000000         -1.1434203583959857E-009
  -83.984999999999999         -1.1064119620485258E-009
  -83.969999999999999         -1.0729445110158053E-009
  -83.954999999999998         -1.0443986786512482E-009
  -83.939999999999998         -1.0219894930330042E-009
  -83.924999999999997         -1.0067353617415620E-009
  -83.909999999999997         -9.9943275877478754E-010
  -83.894999999999996         -1.0006373507565058E-009
  -83.879999999999995         -1.0106511183494149E-009
  -83.864999999999995         -1.0295173602514751E-009
  -83.849999999999994         -1.0570226915973535E-009
  -83.834999999999994         -1.0927057036980159E-009
  -83.819999999999993         -1.1358726181853740E-009
  -83.805000000000007         -1.1856191584058706E-009
  -83.790000000000006         -1.2408580829514904E-009
  -83.775000000000006         -1.3003501608821466E-009
  -83.760000000000005         -1.3627401429516794E-009
  -83.745000000000005         -1.4265943981683904E-009
  -83.730000000000004         -1.4904395495562994E-009
  -83.715000000000003         -1.5528012209387043E-009
  -83.700000000000003         -1.6122421175879253E-009
  -83.685000000000002         -1.6673971092728834E-009
  -83.670000000000002         -1.7170054267268142E-009
  -83.655000000000001         -1.7599386392674887E-009
  -83.640000000000001         -1.7952229702800082E-009
  -83.625000000000000         -1.8220571718075007E-009
  -83.609999999999999         -1.8398231826921574E-009
  -83.594999999999999         -1.8480922348018680E-009
  -83.579999999999998         -1.8466235207625914E-009
  -83.564999999999998         -1.8353581987540224E-009
  -83.549999999999997         -1.8144072910786235E-009
  -83.534999999999997         -1.7840352528608605E-009
  -83.519999999999996         -1.7446402100773639E-009
  -83.504999999999995         -1.6967302007842022E-009
  -83.489999999999995         -1.6408983061211302E-009
  -83.474999999999994         -1.5777967821151151E-009
  -83.459999999999994         -1.5081103033054433E-009
  -83.444999999999993         -1.4325320929486907E-009
  -83.430000000000007         -1.3517404973129032E-009
  -83.415000000000006         -1.2663798898415735E-009
  -83.400000000000006         -1.1770442398528758E-009
  -83.385000000000005         -1.0842657882648155E-009
  -83.370000000000005         -9.8850749807866123E-010
  -83.355000000000004         -8.9016144455555946E-010
  -83.340000000000003         -7.8955114668488591E-010
  -83.325000000000003         -6.8693878363390581E-010
  -83.310000000000002         -5.8253685208953243E-010
  -83.295000000000002         -4.7652304324685701E-010
  -83.280000000000001         -3.6905875577808445E-010
  -83.265000000000001         -2.6030852473546418E-010
  -83.250000000000000         -1.5046136558893863E-010
  -83.234999999999999         -3.9751753971861703E-011
  -83.219999999999999          7.1520393774004987E-011
  -83.204999999999998          1.8297183213000778E-010
  -83.189999999999998          2.9412122737326740E-010
  -83.174999999999997          4.0437822534933332E-010
  -83.159999999999997          5.1303739034835871E-010
  -83.144999999999996          6.1927712957654535E-010
  -83.129999999999995          7.2216477242648125E-010
  -83.114999999999995          8.2066697881799655E-010
  -83.099999999999994          9.1366625376565480E-010
  -83.084999999999994          9.9998298530579177E-010
  -83.069999999999993          1.0784022563825602E-009
  -83.055000000000007          1.1477052641595265E-009
  -83.040000000000006          1.2067040700003417E-009
  -83.025000000000006          1.2542786809177642E-009
  -83.010000000000005          1.2894154632903110E-009
  -82.995000000000005          1.3112451124897007E-009
  -82.980000000000004          1.3190791792183632E-009
  -82.965000000000003          1.3124445974455057E-009
  -82.950000000000003          1.2911127722503579E-009
  -82.935000000000002          1.2551246708625285E-009
  -82.920000000000002          1.2048086972527017E-009
  -82.905000000000001          1.1407920164074881E-009
  -82.890000000000001          1.0640027747754743E-009
  -82.875000000000000          9.7566554835282204E-010
  -82.859999999999999          8.7728702080624998E-010
  -82.844999999999999          7.7063361247908801E-010
  -82.829999999999998          6.5770122681385601E-010
  -82.814999999999998          5.4067739174712415E-010
  -82.799999999999997          4.2189685078852790E-010
  -82.784999999999997          3.0379204707386975E-010
  -82.769999999999996          1.8883954122639324E-010
  -82.754999999999995          7.9503910399569833E-011
  -82.739999999999995         -2.1819046569504508E-011
  -82.724999999999994         -1.1285823664497485E-010
  -82.709999999999994         -1.9152057717519710E-010
  -82.694999999999993         -2.5594001917816911E-010
  -82.680000000000007         -3.0452068644493124E-010
  -82.665000000000006         -3.3597272186547400E-010
  -82.650000000000006         -3.4933972381523404E-010
  -82.635000000000005         -3.4401653747906380E-010
  -82.620000000000005         -3.1975724845700881E-010
  -82.605000000000004         -2.7667232394001928E-010
  -82.590000000000003         -2.1521545656710828E-010
  -82.575000000000003         -1.3616005545280530E-010
  -82.560000000000002         -4.0566234399408430E-011
  -82.545000000000002          7.0260949835976305E-011
  -82.530000000000001          1.9482064572695634E-010
  -82.515000000000001          3.3147126710098007E-010
  -82.500000000000000          4.7848985884613171E-010
  -82.484999999999999          6.3413374551402057E-010
  -82.469999999999999          7.9670275932031132E-010
  -82.454999999999998          9.6459995546638311E-010
  -82.439999999999998          1.1363885388249173E-009
  -82.424999999999997          1.3108440999332061E-009
  -82.409999999999997          1.4869990794252885E-009
  -82.394999999999996          1.6641794609029148E-009
  -82.379999999999995          1.8420313052658344E-009
  -82.364999999999995          2.0205370709902581E-009
  -82.349999999999994          2.2000203880878644E-009
  -82.334999999999994          2.3811397298345582E-009
  -82.319999999999993          2.5648707602243803E-009
  -82.305000000000007          2.7524789114607984E-009
  -82.290000000000006          2.9454809702400553E-009
  -82.275000000000006          3.1455986704287398E-009
  -82.260000000000005          3.3547060684924190E-009
  -82.245000000000005          3.5747704796307289E-009
  -82.230000000000004          3.8077918596002291E-009
  -82.215000000000003          4.0557379676897654E-009
  -82.200000000000003          4.3204848587663491E-009
  -82.185000000000002          4.6037564871426184E-009
  -82.170000000000002          4.9070703056486309E-009
  -82.155000000000001          5.2316915244432494E-009
  -82.140000000000001          5.5785935870744652E-009
  -82.125000000000000          5.9484306369483875E-009
  -82.109999999999999          6.3415175333147999E-009
  -82.094999999999999          6.7578249662858525E-009
  -82.079999999999998          7.1969852299957893E-009
  -82.064999999999998          7.6583077657232934E-009
  -82.049999999999997          8.1408089158685470E-009
  -82.034999999999997          8.6432496715360685E-009
  -82.019999999999996          9.1641823019017465E-009
  -82.004999999999995          9.7020063094532816E-009
  -81.989999999999995          1.0255031490657984E-008
  -81.974999999999994          1.0821534779381636E-008
  -81.960000000000008          1.1399831301162067E-008
  -81.944999999999993          1.1988338322055370E-008
  -81.930000000000007          1.2585632980233186E-008
  -81.915000000000006          1.3190510905758401E-008
  -81.900000000000006          1.3802034182219813E-008
  -81.885000000000005          1.4419566873868916E-008
  -81.870000000000005          1.5042807888221432E-008
  -81.855000000000004          1.5671805186912025E-008
  -81.840000000000003          1.6306957562051139E-008