  -90.000000000000000          0.0000000000000000     
  -89.984999999999999          0.0000000000000000     
  -89.969999999999999          0.0000000000000000     
  -89.954999999999998          0.0000000000000000     
  -89.939999999999998          0.0000000000000000     
  -89.924999999999997          0.0000000000000000     
  -89.909999999999997          0.0000000000000000     
  -89.894999999999996          0.0000000000000000     
  -89.879999999999995          0.0000000000000000     
  -89.864999999999995          0.0000000000000000     
  -89.849999999999994          0.0000000000000000     
  -89.834999999999994          0.0000000000000000     
  -89.819999999999993          0.0000000000000000     
  -89.805000000000007          0.0000000000000000     
  -89.790000000000006          0.0000000000000000     
  -89.775000000000006          0.0000000000000000     
  -89.760000000000005          0.0000000000000000     
  -89.745000000000005          0.0000000000000000     
  -89.730000000000004          0.0000000000000000     
  -89.715000000000003          0.0000000000000000     
  -89.700000000000003          0.0000000000000000     
  -89.685000000000002          0.0000000000000000     
  -89.670000000000002          0.0000000000000000     
  -89.655000000000001          0.0000000000000000     
  -89.640000000000001          0.0000000000000000     
  -89.625000000000000          0.0000000000000000     
  -89.609999999999999          0.0000000000000000     
  -89.594999999999999          0.0000000000000000     
  -89.579999999999998          0.0000000000000000     
  -89.564999999999998          0.0000000000000000     
  -89.549999999999997          0.0000000000000000     
  -89.534999999999997          0.0000000000000000     
  -89.519999999999996          0.0000000000000000     
  -89.504999999999995          0.0000000000000000     
  -89.489999999999995          0.0000000000000000     
  -89.474999999999994          0.0000000000000000     
  -89.459999999999994          0.0000000000000000     
  -89.444999999999993          0.0000000000000000     
  -89.430000000000007          0.0000000000000000     
  -89.415000000000006          0.0000000000000000     
  -89.400000000000006          0.0000000000000000     
  -89.385000000000005          0.0000000000000000     
  -89.370000000000005          0.0000000000000000     
  -89.355000000000004          0.0000000000000000     
  -89.340000000000003          0.0000000000000000     
  -89.325000000000003          0.0000000000000000     
  -89.310000000000002          0.0000000000000000     
  -89.295000000000002          0.0000000000000000     
  -89.280000000000001          0.0000000000000000     
  -89.265000000000001          0.0000000000000000     
  -89.250000000000000          0.0000000000000000     
  -89.234999999999999          0.0000000000000000     
  -89.219999999999999          0.0000000000000000     
  -89.204999999999998          0.0000000000000000     
  -89.189999999999998          0.0000000000000000     
  -89.174999999999997          0.0000000000000000     
  -89.159999999999997          0.0000000000000000     
  -89.144999999999996          0.0000000000000000     
  -89.129999999999995          0.0000000000000000     
  -89.114999999999995          0.0000000000000000     
  -89.099999999999994          0.0000000000000000     
  -89.084999999999994          0.0000000000000000     
  -89.069999999999993          0.0000000000000000     
  -89.055000000000007          0.0000000000000000     
  -89.040000000000006          0.0000000000000000     
  -89.025000000000006          0.0000000000000000     
  -89.010000000000005          0.0000000000000000     
  -88.995000000000005          0.0000000000000000     
  -88.980000000000004          0.0000000000000000     
  -88.965000000000003          0.0000000000000000     
  -88.950000000000003          0.0000000000000000     
  -88.935000000000002          0.0000000000000000     
  -88.920000000000002          0.0000000000000000     
  -88.905000000000001          0.0000000000000000     
  -88.890000000000001          0.0000000000000000     
  -88.875000000000000          0.0000000000000000     
  -88.859999999999999          0.0000000000000000     
  -88.844999999999999          0.0000000000000000     
  -88.829999999999998          0.0000000000000000     
  -88.814999999999998          0.0000000000000000     
  -88.799999999999997          0.0000000000000000     
  -88.784999999999997          0.0000000000000000     
  -88.769999999999996          0.0000000000000000     
  -88.754999999999995          0.0000000000000000     
  -88.739999999999995          0.0000000000000000     
  -88.724999999999994          0.0000000000000000     
  -88.709999999999994          0.0000000000000000     
  -88.694999999999993          0.0000000000000000     
  -88.680000000000007          0.0000000000000000     
  -88.665000000000006          0.0000000000000000     
  -88.650000000000006          0.0000000000000000     
  -88.635000000000005          0.0000000000000000     
  -88.620000000000005          0.0000000000000000     
  -88.605000000000004          0.0000000000000000     
  -88.590000000000003          0.0000000000000000     
  -88.575000000000003          0.0000000000000000     
  -88.560000000000002          0.0000000000000000     
  -88.545000000000002          0.0000000000000000     
  -88.530000000000001          0.0000000000000000     
  -88.515000000000001          0.0000000000000000     
  -88.500000000000000          0.0000000000000000     
  -88.484999999999999          0.0000000000000000     
  -88.469999999999999          0.0000000000000000     
  -88.454999999999998          0.0000000000000000     
  -88.439999999999998          0.0000000000000000     
  -88.424999999999997          0.0000000000000000     
  -88.409999999999997          0.0000000000000000     
  -88.394999999999996          0.0000000000000000     
  -88.379999999999995          0.0000000000000000     
  -88.364999999999995          0.0000000000000000     
  -88.349999999999994          0.0000000000000000     
  -88.334999999999994          0.0000000000000000     
  -88.319999999999993          0.0000000000000000     
  -88.305000000000007          0.0000000000000000     
  -88.290000000000006          0.0000000000000000     
  -88.275000000000006          0.0000000000000000     
  -88.260000000000005          0.0000000000000000     
  -88.245000000000005          0.0000000000000000     
  -88.230000000000004          0.0000000000000000     
  -88.215000000000003          0.0000000000000000     
  -88.200000000000003          0.0000000000000000     
  -88.185000000000002          0.0000000000000000     
  -88.170000000000002          0.0000000000000000     
  -88.155000000000001          0.0000000000000000     
  -88.140000000000001          0.0000000000000000     
  -88.125000000000000          0.0000000000000000     
  -88.109999999999999          0.0000000000000000     
  -88.094999999999999          0.0000000000000000     
  -88.079999999999998          0.0000000000000000     
  -88.064999999999998          0.0000000000000000     
  -88.049999999999997          0.0000000000000000     
  -88.034999999999997          0.0000000000000000     
  -88.019999999999996          0.0000000000000000     
  -88.004999999999995          0.0000000000000000     
  -87.989999999999995          0.0000000000000000     
  -87.974999999999994          0.0000000000000000     
  -87.959999999999994          0.0000000000000000     
  -87.944999999999993          0.0000000000000000     
  -87.930000000000007          0.0000000000000000     
  -87.915000000000006          0.0000000000000000     
  -87.900000000000006          0.0000000000000000     
  -87.885000000000005          0.0000000000000000     
  -87.870000000000005          0.0000000000000000     
  -87.855000000000004          0.0000000000000000     
  -87.840000000000003          0.0000000000000000     
  -87.825000000000003          0.0000000000000000     
  -87.810000000000002          0.0000000000000000     
  -87.795000000000002          0.0000000000000000     
  -87.780000000000001          0.0000000000000000     
  -87.765000000000001          0.0000000000000000     
  -87.750000000000000          0.0000000000000000     
  -87.734999999999999          0.0000000000000000     
  -87.719999999999999          0.0000000000000000     
  -87.704999999999998          0.0000000000000000     
  -87.689999999999998          0.0000000000000000     
  -87.674999999999997          0.0000000000000000     
  -87.659999999999997          0.0000000000000000     
  -87.644999999999996          0.0000000000000000     
  -87.629999999999995          0.0000000000000000     
  -87.614999999999995          0.0000000000000000     
  -87.599999999999994          0.0000000000000000     
  -87.584999999999994          0.0000000000000000     
  -87.569999999999993          0.0000000000000000     
  -87.555000000000007          0.0000000000000000     
  -87.540000000000006          0.0000000000000000     
  -87.525000000000006          0.0000000000000000     
  -87.510000000000005          0.0000000000000000     
  -87.495000000000005          0.0000000000000000     
  -87.480000000000004          0.0000000000000000     
  -87.465000000000003          0.0000000000000000     
  -87.450000000000003          0.0000000000000000     
  -87.435000000000002          0.0000000000000000     
  -87.420000000000002          0.0000000000000000     
  -87.405000000000001          0.0000000000000000     
  -87.390000000000001          0.0000000000000000     
  -87.375000000000000          0.0000000000000000     
  -87.359999999999999          0.0000000000000000     
  -87.344999999999999          0.0000000000000000     
  -87.329999999999998         -1.7556177619382721E-038
  -87.314999999999998         -4.3666158522100062E-038
  -87.299999999999997         -8.0419655667747228E-038
  -87.284999999999997         -1.3020257727492069E-037
  -87.269999999999996         -1.9571108324611383E-037
  -87.254999999999995         -2.7992916579358619E-037
  -87.239999999999995         -3.9796818092808689E-037
  -87.224999999999994         -5.4335175314223977E-037
  -87.209999999999994         -7.1994082964805429E-037
  -87.194999999999993         -9.3070620803144992E-037
  -87.180000000000007         -1.1802297979591374E-036
  -87.165000000000006         -1.4731916672526564E-036
  -87.150000000000006         -1.8142584761098400E-036
  -87.135000000000005         -2.2055668347459891E-036
  -87.120000000000005         -2.6449342151977238E-036
  -87.105000000000004         -3.0869680536297020E-036
  -87.090000000000003         -3.5316685294081272E-036
  -87.075000000000003         -3.9771858388769890E-036
  -87.060000000000002         -4.4208983656069020E-036
  -87.045000000000002         -4.8700550153434310E-036
  -87.030000000000001         -5.3532991358452907E-036
  -87.015000000000001         -5.8438251654741466E-036
  -87.000000000000000         -6.3413923947849911E-036
  -86.984999999999999         -6.8289147579711484E-036
  -86.969999999999999         -7.2200973808986905E-036
  -86.954999999999998         -7.4787118777981036E-036
  -86.939999999999998         -7.5726897238899055E-036
  -86.924999999999997         -7.4725158516666942E-036
  -86.909999999999997         -7.1064717608827747E-036
  -86.894999999999996         -6.4379710508265798E-036
  -86.879999999999995         -5.4219587248576295E-036
  -86.864999999999995         -3.9896661393118972E-036
  -86.849999999999994         -2.0788745661761406E-036
  -86.834999999999994          3.8628458032727972E-037
  -86.819999999999993          3.4620356993759579E-036
  -86.805000000000007          7.2046116203590492E-036
  -86.790000000000006          1.1657320223412489E-035
  -86.775000000000006          1.6497202256014324E-035
  -86.760000000000005          2.1705303732715321E-035
  -86.745000000000005          2.7189313478185982E-035
  -86.730000000000004          3.2849424962187729E-035
  -86.715000000000003          3.8558777491285689E-035
  -86.700000000000003          4.4373514122084199E-035
  -86.685000000000002          5.0199256663125393E-035
  -86.670000000000002          5.5998163150273669E-035
  -86.655000000000001          6.1697898781008334E-035
  -86.640000000000001          6.7354976823777613E-035
  -86.625000000000000          7.2911942696297661E-035
  -86.609999999999999          7.8295477234323343E-035
  -86.594999999999999          8.3361318352827474E-035
  -86.579999999999998          8.7952800435083031E-035
  -86.564999999999998          9.1843669517149273E-035
  -86.549999999999997          9.4752444063583447E-035
  -86.534999999999997          9.6329833504467143E-035
  -86.519999999999996          9.6192814944199421E-035
  -86.504999999999995          9.3914284449023501E-035
  -86.489999999999995          8.9027993204945262E-035
  -86.474999999999994          8.1021206417759111E-035
  -86.459999999999994          6.9373113509316059E-035
  -86.444999999999993          5.3402128646287024E-035
  -86.430000000000007          3.2813514413330700E-035
  -86.415000000000006          7.1330825308241801E-036
  -86.400000000000006         -2.4094196100469479E-035
  -86.385000000000005         -6.1426323999713625E-035
  -86.370000000000005         -1.0497426284007078E-034
  -86.355000000000004         -1.5492192468203433E-034
  -86.340000000000003         -2.1136258569110826E-034
  -86.325000000000003         -2.7428659166075896E-034
  -86.310000000000002         -3.4359412888609970E-034
  -86.295000000000002         -4.1906456258761092E-034
  -86.280000000000001         -5.0035036428895673E-034
  -86.265000000000001         -5.8696721654227393E-034
  -86.250000000000000         -6.7831208156204108E-034
  -86.234999999999999         -7.7362681140972587E-034
  -86.219999999999999         -8.7200779072088174E-034
  -86.204999999999998         -9.7240272246278237E-034
  -86.189999999999998         -1.0736113167006428E-033
  -86.174999999999997         -1.1742702754939976E-033
  -86.159999999999997         -1.2728559561260897E-033
  -86.144999999999996         -1.3676692182470038E-033
  -86.129999999999995         -1.4568309239343551E-033
  -86.114999999999995         -1.5382745908535965E-033
  -86.099999999999994         -1.6097394127603105E-033
  -86.084999999999994         -1.6687630044960131E-033
  -86.069999999999993         -1.7126759836938797E-033
  -86.055000000000007         -1.7385917770386725E-033
  -86.040000000000006         -1.7434050590633052E-033
  -86.025000000000006         -1.7237886297419736E-033
  -86.010000000000005         -1.6761895573993175E-033
  -85.995000000000005         -1.5968295460524048E-033
  -85.980000000000004         -1.4817053027527162E-033
  -85.965000000000003         -1.3265925783479767E-033
  -85.950000000000003         -1.1270516776119241E-033
  -85.935000000000002         -8.7843728564239887E-034
  -85.920000000000002         -5.7591692679607133E-034
  -85.905000000000001         -2.1447486769702855E-034
  -85.890000000000001          2.1103677630961375E-034
  -85.875000000000000          7.0589276061668210E-034
  -85.859999999999999          1.2754201868498131E-033
  -85.844999999999999          1.9249517126821609E-033
  -85.829999999999998          2.6597350479529336E-033
  -85.814999999999998          3.4848308795134133E-033
  -85.799999999999997          4.4049839801080989E-033
  -85.784999999999997          5.4244623125854368E-033
  -85.769999999999996          6.5468606856070355E-033
  -85.754999999999995          7.7748673078164316E-033
  -85.739999999999995          9.1099849752727546E-033
  -85.724999999999994          1.0552209279872189E-032
  -85.709999999999994          1.2099659430653419E-032
  -85.694999999999993          1.3748161687987056E-032
  -85.680000000000007          1.5490789451410880E-032
  -85.665000000000006          1.7317348980851353E-032
  -85.650000000000006          1.9213850424165753E-032
  -85.635000000000005          2.1161926682122481E-032
  -85.620000000000005          2.3138250069329468E-032
  -85.605000000000004          2.5113940158954950E-032
  -85.590000000000003          2.7053981913023808E-032
  -85.575000000000003          2.8916682016280313E-032
  -85.560000000000002          3.0653172229824906E-032
  -85.545000000000002          3.2207002376195223E-032
  -85.530000000000001          3.3513843527042516E-032
  -85.515000000000001          3.4501308740243148E-032
  -85.500000000000000          3.5088973631049734E-032
  -85.484999999999999          3.5188561512451398E-032
  -85.469999999999999          3.4704393021762960E-032
  -85.454999999999998          3.3534067907348414E-032
  -85.439999999999998          3.1569461260083248E-032
  -85.424999999999997          2.8698019495876228E-032
  -85.409999999999997          2.4804406047760548E-032
  -85.394999999999996          1.9772482073874968E-032
  -85.379999999999995          1.3487667731741021E-032
  -85.364999999999995          5.8396627130012079E-033
  -85.349999999999994         -3.2744706553039955E-033
  -85.334999999999994         -1.3946880477361502E-032
  -85.319999999999993         -2.6255177665658399E-032
  -85.305000000000007         -4.0258386362943367E-032
  -85.290000000000006         -5.5992692693438530E-032
  -85.275000000000006         -7.3466962823284966E-032
  -85.260000000000005         -9.2658171756885944E-032
  -85.245000000000005         -1.1350680421525933E-031
  -85.230000000000004         -1.3591231428910754E-031
  -85.215000000000003         -1.5972866443775617E-031
  -85.200000000000003         -1.8476024064628488E-031
  -85.185000000000002         -2.1075804970130249E-031
  -85.170000000000002         -2.3741645131665171E-031
  -85.155000000000001         -2.6437046625134571E-031
  -85.140000000000001         -2.9119381323400231E-031
  -85.125000000000000         -3.1739786277287169E-031
  -85.109999999999999         -3.4243144907674031E-031
  -85.094999999999999         -3.6568188098007256E-031
  -85.079999999999998         -3.8647694028340722E-031
  -85.064999999999998         -4.0408836121663585E-031
  -85.049999999999997         -4.1773660294606713E-031
  -85.034999999999997         -4.2659691512527714E-031
  -85.019999999999996         -4.2980704913805071E-031
  -85.004999999999995         -4.2647630940488278E-031
  -84.989999999999995         -4.1569632091123191E-031
  -84.974999999999994         -3.9655334838831692E-031
  -84.959999999999994         -3.6814200257724748E-031
  -84.944999999999993         -3.2958061569513283E-031
  -84.930000000000007         -2.8002816855373366E-031
  -84.915000000000006         -2.1870267529110896E-031
  -84.900000000000006         -1.4490100220637085E-031
  -84.885000000000005         -5.8020097187660500E-032
  -84.870000000000005          4.2420382021598611E-032
  -84.855000000000004          1.5675424055220949E-031
  -84.840000000000003          2.8514375539930314E-031
  -84.825000000000003          4.2755343838842825E-031
  -84.810000000000002          5.8372317612963487E-031
  -84.795000000000002          7.5314007692777220E-031
  -84.780000000000001          9.3501021189829488E-031
  -84.765000000000001          1.1282296037666846E-030
  -84.750000000000000          1.3313554977865163E-030
  -84.734999999999999          1.5425776326575234E-030
  -84.719999999999999          1.7596902167402750E-030
  -84.704999999999998          1.9800660671804574E-030
  -84.689999999999998          2.2006318775077327E-030
  -84.674999999999997          2.4178464945001357E-030
  -84.659999999999997          2.6276842731840664E-030
  -84.644999999999996          2.8256213470602723E-030
  -84.629999999999995          3.0066309261264450E-030
  -84.614999999999995          3.1651846134308933E-030
  -84.599999999999994          3.2952635017392147E-030
  -84.584999999999994          3.3903814953422161E-030
  -84.569999999999993          3.4436217974005630E-030
  -84.555000000000007          3.4476876913007352E-030
  -84.540000000000006          3.3949732583951722E-030
  -84.525000000000006          3.2776510228610703E-030
  -84.510000000000005          3.0877840468416777E-030
  -84.495000000000005          2.8174602189209314E-030
  -84.480000000000004          2.4589515571178817E-030
  -84.465000000000003          2.0049020999037268E-030
  -84.450000000000003          1.4485416580945669E-030
  -84.435000000000002          7.8392787264812503E-031
  -84.420000000000002          6.2166371391541922E-033
  -84.405000000000001         -8.8804272385412795E-031
  -84.390000000000001         -1.9005879788953725E-030
  -84.375000000000000         -3.0311035900359883E-030
  -84.359999999999999         -4.2768667362012786E-030
  -84.344999999999999         -5.6323806177277022E-030
  -84.329999999999998         -7.0890088305999938E-030
  -84.314999999999998         -8.6346165115357448E-030
  -84.299999999999997         -1.0253224460527617E-029
  -84.284999999999997         -1.1924700691125688E-029
  -84.269999999999996         -1.3624485834957098E-029
  -84.254999999999995         -1.5323383245454767E-029
  -84.239999999999995         -1.6987415305427951E-029
  -84.224999999999994         -1.8577771517231709E-029
  -84.209999999999994         -2.0050865678812127E-029
  -84.194999999999993         -2.1358505907209222E-029
  -84.180000000000007         -2.2448215125336748E-029
  -84.165000000000006         -2.3263692984242299E-029
  -84.150000000000006         -2.3745461350565228E-029
  -84.135000000000005         -2.3831670789700862E-029
  -84.120000000000005         -2.3459111679021304E-029
  -84.105000000000004         -2.2564413400192368E-029
  -84.090000000000003         -2.1085437629117724E-029
  -84.075000000000003         -1.8962861209611937E-029
  -84.060000000000002         -1.6141956133966259E-029
  -84.045000000000002         -1.2574521491424094E-029
  -84.030000000000001         -8.2209741554135917E-030
  -84.015000000000001         -3.0525551394243702E-030
  -84.000000000000000          2.9463786592061211E-030
  -83.984999999999999          9.7760203977096092E-030
  -83.969999999999999          1.7418779978620389E-029
  -83.954999999999998          2.5837030297966381E-029
  -83.939999999999998          3.4970945652217285E-029
  -83.924999999999997          4.4736566028227204E-029
  -83.909999999999997          5.5024107400634986E-029
  -83.894999999999996          6.5696606057739320E-029
  -83.879999999999995          7.6588997766244067E-029
  -83.864999999999995          8.7507654344365395E-029
  -83.849999999999994          9.8230540143639760E-029
  -83.834999999999994          1.0850796436530843E-028
  -83.819999999999993          1.1806406763749333E-028
  -83.805000000000007          1.2659904285316410E-028
  -83.790000000000006          1.3379223471364245E-028
  -83.775000000000006          1.3930599158849082E-028
  -83.760000000000005          1.4279046830331127E-028
  -83.745000000000005          1.4388927152189495E-028
  -83.730000000000004          1.4224599587097085E-028
  -83.715000000000003          1.3751149432574586E-028
  -83.700000000000003          1.2935202730098198E-028
  -83.685000000000002          1.1745803766930542E-028
  -83.670000000000002          1.0155355170674765E-028
  -83.655000000000001          8.1405995316930669E-029
  -83.640000000000001          5.6836359330054766E-029
  -83.625000000000000          2.7729515265163117E-029
  -83.609999999999999         -5.9555347352772285E-030
  -83.594999999999999         -4.4175623885596731E-029
  -83.579999999999998         -8.6793880632851180E-029
  -83.564999999999998         -1.3357087314065944E-028
  -83.549999999999997         -1.8415668702151619E-028
  -83.534999999999997         -2.3808423009712785E-028
  -83.519999999999996         -2.9476391502620672E-028
  -83.504999999999995         -3.5348007827848064E-028
  -83.489999999999995         -4.1338925883480524E-028
  -83.474999999999994         -4.7352059541021491E-028
  -83.459999999999994         -5.3277866720059080E-028
  -83.444999999999993         -5.8994864574526204E-028
  -83.430000000000007         -6.4370428753627498E-028
  -83.415000000000006         -6.9261862292958451E-028
  -83.400000000000006         -7.3517748580291338E-028
  -83.385000000000005         -7.6979617284977117E-028
  -83.370000000000005         -7.9483870287889813E-028
  -83.355000000000004         -8.0864030204636594E-028
  -83.340000000000003         -8.0953248909310332E-028
  -83.325000000000003         -7.9587109762558691E-028
  -83.310000000000002         -7.6606675395721111E-028
  -83.295000000000002         -7.1861781051033722E-028
  -83.280000000000001         -6.5214530144478397E-028
  -83.265000000000001         -5.6542982421626258E-028
  -83.250000000000000         -4.5744981743402145E-028
  -83.234999999999999         -3.2742128316594915E-028
  -83.219999999999999         -1.7483789442966627E-028
  -83.204999999999998          4.8848579932036395E-031
  -83.189999999999998          1.9838758801065007E-028
  -83.174999999999997          4.1829128017400546E-028
  -83.159999999999997          6.5919560134045094E-028
  -83.144999999999996          9.1962471139360255E-028
  -83.129999999999995          1.1975981284233983E-027
  -83.114999999999995          1.4906007323672143E-027
  -83.099999999999994          1.7955579686618307E-027
  -83.084999999999994          2.1088162519062478E-027
  -83.069999999999993          2.4261286176836000E-027
  -83.055000000000007          2.7426496188468035E-027
  -83.040000000000006          3.0529361921870310E-027
  -83.025000000000006          3.3509605621643395E-027
  -83.010000000000005          3.6301314261370580E-027
  -82.995000000000005          3.8833291988797703E-027
  -82.980000000000004          4.1029522349019798E-027
  -82.965000000000003          4.2809790359853139E-027
  -82.950000000000003          4.4090449031953097E-027
  -82.935000000000002          4.4785351518907234E-027
  -82.920000000000002          4.4806972008462925E-027
  -82.905000000000001          4.4067676836290663E-027
  -82.890000000000001          4.2481226711340676E-027
  -82.875000000000000          3.9964421460015436E-027
  -82.859999999999999          3.6438983585655269E-027
  -82.844999999999999          3.1833584346839847E-027
  -82.829999999999998          2.6086075910193740E-027
  -82.814999999999998          1.9145862170147950E-027
  -82.799999999999997          1.0976425569026952E-027
  -82.784999999999997          1.5579490099267290E-028
  -82.769999999999996         -9.1099702672523383E-028
  -82.754999999999995         -2.1005588272696875E-027
  -82.739999999999995         -3.4082296298046495E-027
  -82.724999999999994         -4.8265973003461511E-027
  -82.709999999999994         -6.3452489134638738E-027
  -82.694999999999993         -7.9505446481056783E-027
  -82.680000000000007         -9.6254180686623716E-027
  -82.665000000000006         -1.1349218583898256E-026
  -82.650000000000006         -1.3097603980060232E-026
  -82.635000000000005         -1.4842487265211335E-026
  -82.620000000000005         -1.6552048995182376E-026
  -82.605000000000004         -1.8190838192301030E-026
  -82.590000000000003         -1.9719946449458809E-026
  -82.575000000000003         -2.1097291426998873E-026
  -82.560000000000002         -2.2277995875729090E-026
  -82.545000000000002         -2.3214877593499883E-026
  -82.530000000000001         -2.3859061100554570E-026
  -82.515000000000001         -2.4160707952164276E-026
  -82.500000000000000         -2.4069856444083686E-026
  -82.484999999999999         -2.3537396903474880E-026
  -82.469999999999999         -2.2516153291164105E-026
  -82.454999999999998         -2.0962063411511690E-026
  -82.439999999999998         -1.8835468515102815E-026
  -82.424999999999997         -1.6102473775660219E-026
  -82.409999999999997         -1.2736377330062940E-026
  -82.394999999999996         -8.7191255110122925E-027
  -82.379999999999995         -4.0427961982750334E-027
  -82.364999999999995          1.2889487412490764E-027
  -82.349999999999994          7.2594547320694511E-027
  -82.334999999999994          1.3837757346615713E-026
  -82.319999999999993          2.0977389191637146E-026
  -82.305000000000007          2.8615362343116576E-026
  -82.290000000000006          3.6671351655677455E-026
  -82.275000000000006          4.5047143946619768E-026
  -82.260000000000005          5.3626363743495950E-026
  -82.245000000000005          6.2274571891724038E-026
  -82.230000000000004          7.0839690799919394E-026
  -82.215000000000003          7.9152898071388900E-026
  -82.200000000000003          8.7029908403101940E-026
  -82.185000000000002          9.4272736196775507E-026
  -82.170000000000002          1.0067195737100089E-025
  -82.155000000000001          1.0600944572250865E-025
  -82.140000000000001          1.1006154069574118E-025
  -82.125000000000000          1.1260283145000738E-025
  -82.109999999999999          1.1341023058650108E-025
  -82.094999999999999          1.1226756556528845E-025
  -82.079999999999998          1.0897045978215901E-025
  -82.064999999999998          1.0333162040188100E-025
  -82.049999999999997          9.5186274102876371E-026
  -82.034999999999997          8.4397787711170526E-026
  -82.019999999999996          7.0863350464100202E-026
  -82.004999999999995          5.4519582318311551E-026
  -81.989999999999995          3.5347994346338454E-026
  -81.974999999999994          1.3380159473317217E-026
  -81.960000000000008         -1.1297538179770569E-026
  -81.944999999999993         -3.8539713242911023E-026
  -81.930000000000007         -6.8138452334143810E-026
  -81.915000000000006         -9.9820616216896044E-026
  -81.900000000000006         -1.3324606409257356E-025
  -81.885000000000005         -1.6800701033995950E-025
  -81.870000000000005         -2.0362839429376361E-025
  -81.855000000000004         -2.3956978460415128E-025
  -81.840000000000003         -2.7522836828001722E-025