  -90.000000000000000          0.0000000000000000     
  -89.984999999999999          0.0000000000000000     
  -89.969999999999999          0.0000000000000000     
  -89.954999999999998          0.0000000000000000     
  -89.939999999999998          0.0000000000000000     
  -89.924999999999997          0.0000000000000000     
  -89.909999999999997          0.0000000000000000     
  -89.894999999999996          0.0000000000000000     
  -89.879999999999995          0.0000000000000000     
  -89.864999999999995          0.0000000000000000     
  -89.849999999999994          0.0000000000000000     
  -89.834999999999994          0.0000000000000000     
  -89.819999999999993          0.0000000000000000     
  -89.805000000000007         -9.7693585151744108E-038
  -89.790000000000006         -6.0951712057118209E-037
  -89.775000000000006         -3.0082417158158572E-036
  -89.760000000000005         -1.2792967295944787E-035
  -89.745000000000005         -4.8176757791519443E-035
  -89.730000000000004         -1.6351445548287168E-034
  -89.715000000000003         -5.1158441686297148E-034
  -89.700000000000003         -1.4910852884947973E-033
  -89.685000000000002         -4.0805603962506096E-033
  -89.670000000000002         -1.0555153158537029E-032
  -89.655000000000001         -2.5954841797759182E-032
  -89.640000000000001         -6.0968395711260158E-032
  -89.625000000000000         -1.3738558486888013E-031
  -89.609999999999999         -2.9805077741087992E-031
  -89.594999999999999         -6.2445809908619396E-031
  -89.579999999999998         -1.2669415106665411E-030
  -89.564999999999998         -2.4950550323322010E-030
  -89.549999999999997         -4.7794870557541220E-030
  -89.534999999999997         -8.9220261968654670E-030
  -89.519999999999996         -1.6257043989838318E-029
  -89.504999999999995         -2.8957039817139241E-029
  -89.489999999999995         -5.0486375710415610E-029
  -89.474999999999994         -8.6261553596222548E-029
  -89.459999999999994         -1.4459352391724660E-028
  -89.444999999999993         -2.3800721697347667E-028
  -89.430000000000007         -3.8505529045659619E-028
  -89.415000000000006         -6.1276638965088148E-028
  -89.400000000000006         -9.5989003244440927E-028
  -89.385000000000005         -1.4811202459194709E-027
  -89.370000000000005         -2.2524925516874800E-027
  -89.355000000000004         -3.3781512263051874E-027
  -89.340000000000003         -4.9986695112274286E-027
  -89.325000000000003         -7.3010640633319485E-027
  -89.310000000000002         -1.0530577409133173E-026
  -89.295000000000002         -1.5004194506317909E-026
  -89.280000000000001         -2.1125673471403319E-026
  -89.265000000000001         -2.9401671776347263E-026
  -89.250000000000000         -4.0458219882920613E-026
  -89.234999999999999         -5.5056420653241915E-026
  -89.219999999999999         -7.4105710533002468E-026
  -89.204999999999998         -9.8672503125056726E-026
  -89.189999999999998         -1.2998121532489668E-025
  -89.174999999999997         -1.6940392276573454E-025
  -89.159999999999997         -2.1843383437056471E-025
  -89.144999999999996         -2.7863676508054104E-025
  -89.129999999999995         -3.5157368573782125E-025
  -89.114999999999995         -4.3868584521624412E-025
  -89.099999999999994         -5.4113314021742072E-025
  -89.084999999999994         -6.5957483659098621E-025
  -89.069999999999993         -7.9388037785712653E-025
  -89.055000000000007         -9.4275741263786334E-025
  -89.040000000000006         -1.1032829154565133E-024
  -89.025000000000006         -1.2703228316304784E-024
  -89.010000000000005         -1.4358266384067519E-024
  -88.995000000000005         -1.5879823270210070E-024
  -88.980000000000004         -1.7102204658047552E-024
  -88.965000000000003         -1.7800585189591977E-024
  -88.950000000000003         -1.7677797017542063E-024
  -88.935000000000002         -1.6349475554437926E-024
  -88.920000000000002         -1.3327652151908608E-024
  -88.905000000000001         -8.0029682454877451E-025
  -88.890000000000001          3.7418520029462372E-026
  -88.875000000000000          1.2713130492817571E-024
  -88.859999999999999          3.0102358246925262E-024
  -88.844999999999999          5.3828113194372994E-024
  -88.829999999999998          8.5391029657944592E-024
  -88.814999999999998          1.2651950779743608E-023
  -88.799999999999997          1.7917812681120987E-023
  -88.784999999999997          2.4556921279724388E-023
  -88.769999999999996          3.2812533668592288E-023
  -88.754999999999995          4.2948995559342437E-023
  -88.739999999999995          5.5248365746358420E-023
  -88.724999999999994          7.0005271155965799E-023
  -88.709999999999994          8.7519630393442363E-023
  -88.694999999999993          1.0808696968654563E-022
  -88.680000000000007          1.3198593363966138E-022
  -88.665000000000006          1.5946270365320375E-022
  -88.650000000000006          1.9071190748970886E-022
  -88.635000000000005          2.2585408309549450E-022
  -88.620000000000005          2.6490910976537222E-022
  -88.605000000000004          3.0776601685808278E-022
  -88.590000000000003          3.5414889238341607E-022
  -88.575000000000003          4.0357944681909298E-022
  -88.560000000000002          4.5533642148402631E-022
  -88.545000000000002          5.0841280072282161E-022
  -88.530000000000001          5.6147176191282964E-022
  -88.515000000000001          6.1280254974055188E-022
  -88.500000000000000          6.6027773887323937E-022
  -88.484999999999999          7.0131415694509157E-022
  -88.469999999999999          7.3283910868873850E-022
  -88.454999999999998          7.5126487995078397E-022
  -88.439999999999998          7.5247399545920880E-022
  -88.424999999999997          7.3181815859431422E-022
  -88.409999999999997          6.8413410433747318E-022
  -88.394999999999996          6.0377914218807599E-022
  -88.379999999999995          4.8469002411972154E-022
  -88.364999999999995          3.2046687938053280E-022
  -88.349999999999994          1.0448607208970138E-022
  -88.334999999999994         -1.6995726737415716E-022
  -88.319999999999993         -5.0947525121174775E-022
  -88.305000000000007         -9.2038141092659279E-022
  -88.290000000000006         -1.4084537171982165E-021
  -88.275000000000006         -1.9786685318086937E-021
  -88.260000000000005         -2.6349081106407684E-021
  -88.245000000000005         -3.3796469273383890E-021
  -88.230000000000004         -4.2136216896346104E-021
  -88.215000000000003         -5.1354959030729200E-021
  -88.200000000000003         -6.1415220113478620E-021
  -88.185000000000002         -7.2252190866718263E-021
  -88.170000000000002         -8.3770713208261851E-021
  -88.155000000000001         -9.5842671078391699E-021
  -88.140000000000001         -1.0830480939722796E-020
  -88.125000000000000         -1.2095723964662976E-020
  -88.109999999999999         -1.3356271285598497E-020
  -88.094999999999999         -1.4584675692711657E-020
  -88.079999999999998         -1.5749885601289041E-020
  -88.064999999999998         -1.6817472041713827E-020
  -88.049999999999997         -1.7749972779525316E-020
  -88.034999999999997         -1.8507356796719914E-020
  -88.019999999999996         -1.9047615596642146E-020
  -88.004999999999995         -1.9327472446736429E-020
  -87.989999999999995         -1.9303191787701157E-020
  -87.974999999999994         -1.8931496886980747E-020
  -87.959999999999994         -1.8170568271614388E-020
  -87.944999999999993         -1.6981089013111670E-020
  -87.930000000000007         -1.5327325555245155E-020
  -87.915000000000006         -1.3178206926255820E-020
  -87.900000000000006         -1.0508371639315818E-020
  -87.885000000000005         -7.2991330058409811E-021
  -87.870000000000005         -3.5393471096785005E-021
  -87.855000000000004          7.7388027254779651E-022
  -87.840000000000003          5.6346646676252935E-021
  -87.825000000000003          1.1028030087693785E-020
  -87.810000000000002          1.6929847435985997E-020
  -87.795000000000002          2.3307035142554778E-020
  -87.780000000000001          3.0118040306316407E-020
  -87.765000000000001          3.7313600444384233E-020
  -87.750000000000000          4.4837790392531426E-020
  -87.734999999999999          5.2629298619026762E-020
  -87.719999999999999          6.0622949107714745E-020
  -87.704999999999998          6.8751368643937782E-020
  -87.689999999999998          7.6946783347429080E-020
  -87.674999999999997          8.5142831361076863E-020
  -87.659999999999997          9.3276323840900324E-020
  -87.644999999999996          1.0128886700553205E-019
  -87.629999999999995          1.0912824507880462E-019
  -87.614999999999995          1.1674939610437952E-019
  -87.599999999999994          1.2411501294416088E-019
  -87.584999999999994          1.3119549804185580E-019
  -87.569999999999993          1.3796829780107514E-019
  -87.555000000000007          1.4441654549214105E-019
  -87.540000000000006          1.5052685112888784E-019
  -87.525000000000006          1.5628632878833558E-019
  -87.510000000000005          1.6167879674975119E-019
  -87.495000000000005          1.6668017630249115E-019
  -87.480000000000004          1.7125325724368763E-019
  -87.465000000000003          1.7534177836698997E-019
  -87.450000000000003          1.7886415898448511E-019
  -87.435000000000002          1.8170698487937380E-019
  -87.420000000000002          1.8371854595743498E-019
  -87.405000000000001          1.8470261946773459E-019
  -87.390000000000001          1.8441301578046153E-019
  -87.375000000000000          1.8254899011946743E-019
  -87.359999999999999          1.7875215355966660E-019
  -87.344999999999999          1.7260503838566120E-019
  -87.329999999999998          1.6363184772417131E-019
  -87.314999999999998          1.5130167379360567E-019
  -87.299999999999997          1.3503449496350269E-019
  -87.284999999999997          1.1421037813884507E-019
  -87.269999999999996          8.8181821845762796E-020
  -87.254999999999995          5.6289634221884998E-020
  -87.239999999999995          1.7882135885013403E-020
  -87.224999999999994         -2.7662215384654627E-020
  -87.209999999999994         -8.0909172352014150E-020
  -87.194999999999993         -1.4234028338054174E-019
  -87.180000000000007         -2.1232232229254797E-019
  -87.165000000000006         -2.9107511233581880E-019
  -87.150000000000006         -3.7863866837248649E-019
  -87.135000000000005         -4.7484070419059273E-019
  -87.120000000000005         -5.7926522549020577E-019
  -87.105000000000004         -6.9122391460410493E-019
  -87.090000000000003         -8.0973108243485670E-019
  -87.075000000000003         -9.3348386781890178E-019
  -87.060000000000002         -1.0608490026367542E-018
  -87.045000000000002         -1.1898569181511370E-018
  -87.030000000000001         -1.3182051571270087E-018
  -87.015000000000001         -1.4432720740104591E-018
  -87.000000000000000         -1.5621409265640497E-018
  -86.984999999999999         -1.6716361684161893E-018
  -86.969999999999999         -1.7683713221390860E-018
  -86.954999999999998         -1.8488096736261926E-018
  -86.939999999999998         -1.9093359266127696E-018
  -86.924999999999997         -1.9463404717007887E-018
  -86.909999999999997         -1.9563119271899624E-018
  -86.894999999999996         -1.9359397094737001E-018
  -86.879999999999995         -1.8822217733138939E-018
  -86.864999999999995         -1.7925781423799910E-018
  -86.849999999999994         -1.6649638194026069E-018
  -86.834999999999994         -1.4979814895319866E-018
  -86.819999999999993         -1.2909876062515639E-018
  -86.805000000000007         -1.0441906190757019E-018
  -86.790000000000006         -7.5873560446611568E-019
  -86.775000000000006         -4.3677297352150156E-019
  -86.760000000000005         -8.1506842656326390E-020
  -86.745000000000005          3.0278033838890355E-019
  -86.730000000000004          7.1072960892992959E-019
  -86.715000000000003          1.1359367363315616E-018
  -86.700000000000003          1.5710146099827889E-018
  -86.685000000000002          2.0076881150356309E-018
  -86.670000000000002          2.4369218542615945E-018
  -86.655000000000001          2.8490805176929322E-018
  -86.640000000000001          3.2341196511514125E-018
  -86.625000000000000          3.5818049625082233E-018
  -86.609999999999999          3.8819565467598275E-018
  -86.594999999999999          4.1247113090772959E-018
  -86.579999999999998          4.3008027586485033E-018
  -86.564999999999998          4.4018465927846121E-018
  -86.549999999999997          4.4206269014120160E-018
  -86.534999999999997          4.3513769948903017E-018
  -86.519999999999996          4.1900412066761215E-018
  -86.504999999999995          3.9345172572426720E-018
  -86.489999999999995          3.5848618084619130E-018
  -86.474999999999994          3.1434573472931505E-018
  -86.459999999999994          2.6151331609476221E-018
  -86.444999999999993          2.0072288230005108E-018
  -86.430000000000007          1.3295982258964312E-018
  -86.415000000000006          5.9455085112593803E-019
  -86.400000000000006         -1.8327522884789484E-019
  -86.385000000000005         -9.8710678160584092E-019
  -86.370000000000005         -1.7982952011836512E-018
  -86.355000000000004         -2.5966396771976209E-018
  -86.340000000000003         -3.3607674135830284E-018
  -86.325000000000003         -4.0685647706390341E-018
  -86.310000000000002         -4.6976492749657187E-018
  -86.295000000000002         -5.2258723384813625E-018
  -86.280000000000001         -5.6318401754132002E-018
  -86.265000000000001         -5.8954398891670049E-018
  -86.250000000000000         -5.9983548058487087E-018
  -86.234999999999999         -5.9245554059579527E-018
  -86.219999999999999         -5.6607542737249913E-018
  -86.204999999999998         -5.1968064525271680E-018
  -86.189999999999998         -4.5260452802176115E-018
  -86.174999999999997         -3.6455433646084969E-018
  -86.159999999999997         -2.5562864981948340E-018
  -86.144999999999996         -1.2632594781430207E-018
  -86.129999999999995          2.2456480215348591E-019
  -86.114999999999995          1.8943302499155983E-018
  -86.099999999999994          3.7294947521571162E-018
  -86.084999999999994          5.7101104865148053E-018
  -86.069999999999993          7.8131816251645384E-018
  -86.055000000000007          1.0013080871958504E-017
  -86.040000000000006          1.2282014958314920E-017
  -86.025000000000006          1.4590516402092197E-017
  -86.010000000000005          1.6907935680053409E-017
  -85.995000000000005          1.9202931745969533E-017
  -85.980000000000004          2.1443911263524720E-017
  -85.965000000000003          2.3599424825829702E-017
  -85.950000000000003          2.5638476320970894E-017
  -85.935000000000002          2.7530742962053325E-017
  -85.920000000000002          2.9246694401208854E-017
  -85.905000000000001          3.0757576185983911E-017
  -85.890000000000001          3.2035312152027223E-017
  -85.875000000000000          3.3052247997099915E-017
  -85.859999999999999          3.3780828680636622E-017
  -85.844999999999999          3.4193155054937154E-017
  -85.829999999999998          3.4260484248076521E-017
  -85.814999999999998          3.3952706885757790E-017
  -85.799999999999997          3.3237804460830260E-017
  -85.784999999999997          3.2081362951089275E-017
  -85.769999999999996          3.0446155920247497E-017
  -85.754999999999995          2.8291886437583795E-017
  -85.739999999999995          2.5575097742437081E-017
  -85.724999999999994          2.2249318827994127E-017
  -85.709999999999994          1.8265509464459113E-017
  -85.694999999999993          1.3572818723675344E-017
  -85.680000000000007          8.1197008457715758E-018
  -85.665000000000006          1.8554205010817164E-018
  -85.650000000000006         -5.2680469691929912E-018
  -85.635000000000005         -1.3293719713193827E-017
  -85.620000000000005         -2.2256932198352065E-017
  -85.605000000000004         -3.2182321999212597E-017
  -85.590000000000003         -4.3080502670215091E-017
  -85.575000000000003         -5.4944539129103903E-017
  -85.560000000000002         -6.7746277456550178E-017
  -85.545000000000002         -8.1432642435730064E-017
  -85.530000000000001         -9.5922060823356030E-017
  -85.515000000000001         -1.1110107652661030E-016
  -85.500000000000000         -1.2682139922271928E-016
  -85.484999999999999         -1.4289746252178526E-016
  -85.469999999999999         -1.5910468357877765E-016
  -85.454999999999998         -1.7517860282569589E-016
  -85.439999999999998         -1.9081500308557769E-016
  -85.424999999999997         -2.0567119335680967E-016
  -85.409999999999997         -2.1936858961663856E-016
  -85.394999999999996         -2.3149659264388284E-016
  -85.379999999999995         -2.4161800108886129E-016
  -85.364999999999995         -2.4927578773697100E-016
  -85.349999999999994         -2.5400135807992314E-016
  -85.334999999999994         -2.5532431766441595E-016
  -85.319999999999993         -2.5278335117155106E-016
  -85.305000000000007         -2.4593845145500946E-016
  -85.290000000000006         -2.3438396914239514E-016
  -85.275000000000006         -2.1776248279974640E-016
  -85.260000000000005         -1.9577903967296151E-016
  -85.245000000000005         -1.6821547583856331E-016
  -85.230000000000004         -1.3494448489155742E-016
  -85.215000000000003         -9.5942991801576072E-017
  -85.200000000000003         -5.1304411729556098E-017
  -85.185000000000002         -1.2494006873651541E-018
  -85.170000000000002          5.3865386067077423E-017
  -85.155000000000001          1.1354094169628652E-016
  -85.140000000000001          1.7713227108364813E-016
  -85.125000000000000          2.4384797414118585E-016
  -85.109999999999999          3.1275331030693513E-016
  -85.094999999999999          3.8277675643283969E-016
  -85.079999999999998          4.5272068734082075E-016
  -85.064999999999998          5.2127582832243958E-016
  -85.049999999999997          5.8703957222638187E-016
  -85.034999999999997          6.4853829348266194E-016
  -85.019999999999996          7.0425320907729363E-016
  -85.004999999999995          7.5264928355161533E-016
  -84.989999999999995          7.9220709861693044E-016
  -84.974999999999994          8.2145689329107515E-016
  -84.959999999999994          8.3901435104043989E-016
  -84.944999999999993          8.4361718101537897E-016
  -84.930000000000007          8.3416175222517921E-016
  -84.915000000000006          8.0973893361964075E-016
  -84.900000000000006          7.6966818716520395E-016
  -84.885000000000005          7.1352922570135308E-016
  -84.870000000000005          6.4119001796743486E-016
  -84.855000000000004          5.5283034670650403E-016
  -84.840000000000003          4.4896012575280767E-016
  -84.825000000000003          3.3043192023753684E-016
  -84.810000000000002          1.9844645230298371E-016
  -84.795000000000002          5.4551171734443086E-017
  -84.780000000000001         -9.9368790086966488E-017
  -84.765000000000001         -2.6110754099091310E-016
  -84.750000000000000         -4.2816305814777085E-016
  -84.734999999999999         -5.9776967972308094E-016
  -84.719999999999999         -7.6693788233884812E-016
  -84.704999999999998         -9.3250068921462738E-016
  -84.689999999999998         -1.0911667950151845E-015
  -84.674999999999997         -1.2395785081980443E-015
  -84.659999999999997         -1.3743737432373175E-015
  -84.644999999999996         -1.4922518244957911E-015
  -84.629999999999995         -1.5900401900695240E-015
  -84.614999999999995         -1.6647618367862725E-015
  -84.599999999999994         -1.7137017064127315E-015
  -84.584999999999994         -1.7344705307629333E-015
  -84.569999999999993         -1.7250647592792663E-015
  -84.555000000000007         -1.6839206632619807E-015
  -84.540000000000006         -1.6099624049889451E-015
  -84.525000000000006         -1.5026418482641675E-015
  -84.510000000000005         -1.3619695809994887E-015
  -84.495000000000005         -1.1885366204338554E-015
  -84.480000000000004         -9.8352542456163440E-016
  -84.465000000000003         -7.4871063328644204E-016
  -84.450000000000003         -4.8644837463018452E-016
  -84.435000000000002         -1.9965575065386684E-016
  -84.420000000000002          1.0822068143246795E-016
  -84.405000000000001          4.3324573228732948E-016
  -84.390000000000001          7.7104551567699865E-016
  -84.375000000000000          1.1168654569975248E-015
  -84.359999999999999          1.4656342376447983E-015
  -84.344999999999999          1.8120347141715488E-015
  -84.329999999999998          2.1505766307719108E-015
  -84.314999999999998          2.4756740169169789E-015
  -84.299999999999997          2.7817229026277186E-015
  -84.284999999999997          3.0631781867149297E-015
  -84.269999999999996          3.3146292344697886E-015
  -84.254999999999995          3.5308731460137856E-015
  -84.239999999999995          3.7069837894839267E-015
  -84.224999999999994          3.8383763872949610E-015
  -84.209999999999994          3.9208663849292155E-015
  -84.194999999999993          3.9507217552210878E-015
  -84.180000000000007          3.9247127615426973E-015
  -84.165000000000006          3.8401509213194587E-015
  -84.150000000000006          3.6949271225127089E-015
  -84.135000000000005          3.4875416932893342E-015
  -84.120000000000005          3.2171310835596087E-015
  -84.105000000000004          2.8834915818997178E-015
  -84.090000000000003          2.4870983737930712E-015
  -84.075000000000003          2.0291237528386689E-015
  -84.060000000000002          1.5114544849265197E-015
  -84.045000000000002          9.3670684307245542E-016
  -84.030000000000001          3.0824272751390797E-016
  -84.015000000000001         -3.6981482299924394E-016
  -84.000000000000000         -1.0925658816858118E-015
  -83.984999999999999         -1.8543190224149571E-015
  -83.969999999999999         -2.6485771583741047E-015
  -83.954999999999998         -3.4680264777010687E-015
  -83.939999999999998         -4.3045291113551036E-015
  -83.924999999999997         -5.1491217566883643E-015
  -83.909999999999997         -5.9920211831600637E-015
  -83.894999999999996         -6.8226432905777856E-015
  -83.879999999999995         -7.6296314847012180E-015
  -83.864999999999995         -8.4009041110871992E-015
  -83.849999999999994         -9.1237179825607619E-015
  -83.834999999999994         -9.7847585882240157E-015
  -83.819999999999993         -1.0370247243123975E-014
  -83.805000000000007         -1.0866081695721803E-014
  -83.790000000000006         -1.1257999605251631E-014
  -83.775000000000006         -1.1531771665232535E-014
  -83.760000000000005         -1.1673426914232503E-014
  -83.745000000000005         -1.1669504304653768E-014
  -83.730000000000004         -1.1507328835473618E-014
  -83.715000000000003         -1.1175316484105403E-014
  -83.700000000000003         -1.0663298620017334E-014
  -83.685000000000002         -9.9628565827466521E-015
  -83.670000000000002         -9.0676723535397866E-015
  -83.655000000000001         -7.9738749918277854E-015
  -83.640000000000001         -6.6803858011523203E-015
  -83.625000000000000         -5.1892457073998005E-015
  -83.609999999999999         -3.5059178613217794E-015
  -83.594999999999999         -1.6395537127595109E-015
  -83.579999999999998          3.9678546377056414E-016
  -83.564999999999998          2.5859638476383564E-015
  -83.549999999999997          4.9066759397122395E-015
  -83.534999999999997          7.3334232160134419E-015
  -83.519999999999996          9.8365809109699810E-015
  -83.504999999999995          1.2382554427344331E-014
  -83.489999999999995          1.4934037893040569E-014
  -83.474999999999994          1.7450369491425755E-014
  -83.459999999999994          1.9887996482417965E-014
  -83.444999999999993          2.2201043561593907E-014
  -83.430000000000007          2.4341983710283142E-014
  -83.415000000000006          2.6262393748957037E-014
  -83.400000000000006          2.7913811534571384E-014
  -83.385000000000005          2.9248657532413014E-014
  -83.370000000000005          3.0221217374318612E-014
  -83.355000000000004          3.0788682015133947E-014
  -83.340000000000003          3.0912176030711835E-014
  -83.325000000000003          3.0557841820084627E-014
  -83.310000000000002          2.9697852656869125E-014
  -83.295000000000002          2.8311422352539709E-014
  -83.280000000000001          2.6385718357945474E-014
  -83.265000000000001          2.3916693549664442E-014
  -83.250000000000000          2.0909801125811034E-014
  -83.234999999999999          1.7380553647781266E-014
  -83.219999999999999          1.3354934698265111E-014
  -83.204999999999998          8.8696140276151025E-015
  -83.189999999999998          3.9719661885711730E-015
  -83.174999999999997         -1.2801206814271873E-015
  -83.159999999999997         -6.8186652003410057E-015
  -83.144999999999996         -1.2566239451187056E-014
  -83.129999999999995         -1.8436839308391163E-014
  -83.114999999999995         -2.4336982827762553E-014
  -83.099999999999994         -3.0167017430089704E-014
  -83.084999999999994         -3.5822625925720566E-014
  -83.069999999999993         -4.1196501098699281E-014
  -83.055000000000007         -4.6180185462327619E-014
  -83.040000000000006         -5.0666010964614192E-014
  -83.025000000000006         -5.4549148808006806E-014
  -83.010000000000005         -5.7729679597915556E-014
  -82.995000000000005         -6.0114700760685591E-014
  -82.980000000000004         -6.1620372975197679E-014
  -82.965000000000003         -6.2173912394360153E-014
  -82.950000000000003         -6.1715457505724658E-014
  -82.935000000000002         -6.0199749644853501E-014
  -82.920000000000002         -5.7597650878361134E-014
  -82.905000000000001         -5.3897397612676090E-014
  -82.890000000000001         -4.9105586540391585E-014
  -82.875000000000000         -4.3247848878491535E-014
  -82.859999999999999         -3.6369219674715556E-014
  -82.844999999999999         -2.8534137807558965E-014
  -82.829999999999998         -1.9826125807818722E-014
  -82.814999999999998         -1.0347074962785939E-014
  -82.799999999999997         -2.1619920408624978E-016
  -82.784999999999997          1.0431357282136584E-014
  -82.769999999999996          2.1446245726032022E-014
  -82.754999999999995          3.2666930141825312E-014
  -82.739999999999995          4.3921978684288709E-014
  -82.724999999999994          5.5032591168586303E-014
  -82.709999999999994          6.5815313810869969E-014
  -82.694999999999993          7.6084897117443401E-014
  -82.680000000000007          8.5657257111945717E-014
  -82.665000000000006          9.4352456891325792E-014
  -82.650000000000006          1.0199770851060733E-013
  -82.635000000000005          1.0843031388128171E-013
  -82.620000000000005          1.1350047014442935E-013
  -82.605000000000004          1.1707393951856937E-013
  -82.590000000000003          1.1903448875454775E-013
  -82.575000000000003          1.1928611852625448E-013
  -82.560000000000002          1.1775496756068898E-013
  -82.545000000000002          1.1439094571748243E-013
  -82.530000000000001          1.0916902825524114E-013
  -82.515000000000001          1.0209014352207529E-013
  -82.500000000000000          9.3181762490530257E-014
  -82.484999999999999          8.2498081716703142E-014
  -82.469999999999999          7.0119853933653387E-014
  -82.454999999999998          5.6153856114711867E-014
  -82.439999999999998          4.0732028888006491E-014
  -82.424999999999997          2.4010239868359207E-014
  -82.409999999999997          6.1667988085294632E-015
  -82.394999999999996         -1.2599347427996385E-014
  -82.379999999999995         -3.2070659604539753E-014
  -82.364999999999995         -5.2013264301067202E-014
  -82.349999999999994         -7.2179445038088319E-014
  -82.334999999999994         -9.2310246902968518E-014
  -82.319999999999993         -1.1213829208744572E-013
  -82.305000000000007         -1.3139062591833311E-013
  -82.290000000000006         -1.4979173229481141E-013
  -82.275000000000006         -1.6706654234945745E-013
  -82.260000000000005         -1.8294358541080802E-013
  -82.245000000000005         -1.9715803154570638E-013
  -82.230000000000004         -2.0945490350823825E-013
  -82.215000000000003         -2.1959219382097772E-013
  -82.200000000000003         -2.2734396830370596E-013
  -82.185000000000002         -2.3250346960212998E-013
  -82.170000000000002         -2.3488622071660137E-013
  -82.155000000000001         -2.3433303366314495E-013
  -82.140000000000001         -2.3071285550416154E-013
  -82.125000000000000         -2.2392568214176650E-013
  -82.109999999999999         -2.1390526882322097E-013
  -82.094999999999999         -2.0062170512109151E-013
  -82.079999999999998         -1.8408375952044809E-013
  -82.064999999999998         -1.6434107492826339E-013
  -82.049999999999997         -1.4148606602721464E-013
  -82.034999999999997         -1.1565543715872512E-013
  -82.019999999999996         -8.7031429155462470E-014
  -82.004999999999995         -5.5842463086378663E-014
  -81.989999999999995         -2.2363453658900447E-014
  -81.974999999999994          1.3084558393369750E-014
  -81.960000000000008          5.0135382092609052E-014
  -81.944999999999993          8.8379329625087183E-014
  -81.930000000000007          1.2736564732572508E-013
  -81.915000000000006          1.6660572932109680E-013
  -81.900000000000006          2.0557718667570807E-013
  -81.885000000000005          2.4372875679495865E-013
  -81.870000000000005          2.8048608357797433E-013
  -81.855000000000004          3.1525839881349493E-013
  -81.840000000000003          3.4744608449002734E-013