  -90.000000000000000          0.0000000000000000     
  -89.984999999999999          0.0000000000000000     
  -89.969999999999999          0.0000000000000000     
  -89.954999999999998          0.0000000000000000     
  -89.939999999999998          0.0000000000000000     
  -89.924999999999997          0.0000000000000000     
  -89.909999999999997          0.0000000000000000     
  -89.894999999999996          0.0000000000000000     
  -89.879999999999995          0.0000000000000000     
  -89.864999999999995          0.0000000000000000     
  -89.849999999999994          0.0000000000000000     
  -89.834999999999994          0.0000000000000000     
  -89.819999999999993          0.0000000000000000     
  -89.805000000000007          0.0000000000000000     
  -89.790000000000006          0.0000000000000000     
  -89.775000000000006          0.0000000000000000     
  -89.760000000000005          0.0000000000000000     
  -89.745000000000005          0.0000000000000000     
  -89.730000000000004          0.0000000000000000     
  -89.715000000000003          0.0000000000000000     
  -89.700000000000003          0.0000000000000000     
  -89.685000000000002          0.0000000000000000     
  -89.670000000000002          0.0000000000000000     
  -89.655000000000001          0.0000000000000000     
  -89.640000000000001          0.0000000000000000     
  -89.625000000000000          0.0000000000000000     
  -89.609999999999999          0.0000000000000000     
  -89.594999999999999          0.0000000000000000     
  -89.579999999999998          0.0000000000000000     
  -89.564999999999998          0.0000000000000000     
  -89.549999999999997          0.0000000000000000     
  -89.534999999999997          0.0000000000000000     
  -89.519999999999996          0.0000000000000000     
  -89.504999999999995          0.0000000000000000     
  -89.489999999999995          0.0000000000000000     
  -89.474999999999994          0.0000000000000000     
  -89.459999999999994          0.0000000000000000     
  -89.444999999999993          0.0000000000000000     
  -89.430000000000007          0.0000000000000000     
  -89.415000000000006          0.0000000000000000     
  -89.400000000000006          0.0000000000000000     
  -89.385000000000005          0.0000000000000000     
  -89.370000000000005          0.0000000000000000     
  -89.355000000000004          0.0000000000000000     
  -89.340000000000003          0.0000000000000000     
  -89.325000000000003          0.0000000000000000     
  -89.310000000000002          0.0000000000000000     
  -89.295000000000002          0.0000000000000000     
  -89.280000000000001          0.0000000000000000     
  -89.265000000000001          0.0000000000000000     
  -89.250000000000000          0.0000000000000000     
  -89.234999999999999          0.0000000000000000     
  -89.219999999999999          0.0000000000000000     
  -89.204999999999998          0.0000000000000000     
  -89.189999999999998          0.0000000000000000     
  -89.174999999999997          0.0000000000000000     
  -89.159999999999997          0.0000000000000000     
  -89.144999999999996          0.0000000000000000     
  -89.129999999999995          0.0000000000000000     
  -89.114999999999995          0.0000000000000000     
  -89.099999999999994          0.0000000000000000     
  -89.084999999999994          0.0000000000000000     
  -89.069999999999993         -1.3047145281906148E-038
  -89.055000000000007         -3.8434954409347515E-038
  -89.040000000000006         -7.5400361513963737E-038
  -89.025000000000006         -1.2245066143260209E-037
  -89.010000000000005         -1.8436939947060191E-037
  -88.995000000000005         -2.5845519728998868E-037
  -88.980000000000004         -2.8561769767315578E-037
  -88.965000000000003         -1.5205431342372474E-037
  -88.950000000000003          1.8921121076608788E-037
  -88.935000000000002          7.9344075018470071E-037
  -88.920000000000002          1.7264886736850777E-036
  -88.905000000000001          3.0561102507233963E-036
  -88.890000000000001          4.8440361538733564E-036
  -88.875000000000000          7.0435558364367859E-036
  -88.859999999999999          9.7202527570371377E-036
  -88.844999999999999          1.2846574831897387E-035
  -88.829999999999998          1.6267458543219579E-035
  -88.814999999999998          1.9694628681239712E-035
  -88.799999999999997          2.2659798831892657E-035
  -88.784999999999997          2.4348916198359942E-035
  -88.769999999999996          2.3639987780979447E-035
  -88.754999999999995          1.8830836918744294E-035
  -88.739999999999995          7.4615020493110588E-036
  -88.724999999999994         -1.3992684693808372E-035
  -88.709999999999994         -5.0439303170645362E-035
  -88.694999999999993         -1.0867134180608813E-034
  -88.680000000000007         -1.9776282777718962E-034
  -88.665000000000006         -3.2988276788547506E-034
  -88.650000000000006         -5.2110454357218964E-034
  -88.635000000000005         -7.9241277233930071E-034
  -88.620000000000005         -1.1708719029586712E-033
  -88.605000000000004         -1.6909943577349473E-033
  -88.590000000000003         -2.3963023558298434E-033
  -88.575000000000003         -3.3410760019315094E-033
  -88.560000000000002         -4.5922622707131672E-033
  -88.545000000000002         -6.2315019999043092E-033
  -88.530000000000001         -8.3572013317420387E-033
  -88.515000000000001         -1.1086539053246091E-032
  -88.500000000000000         -1.4557269143337421E-032
  -88.484999999999999         -1.8929122182509579E-032
  -88.469999999999999         -2.4384504771967442E-032
  -88.454999999999998         -3.1128198313199823E-032
  -88.439999999999998         -3.9385634704703605E-032
  -88.424999999999997         -4.9399221452769483E-032
  -88.409999999999997         -6.1422101265847036E-032
  -88.394999999999996         -7.5708642305246577E-032
  -88.379999999999995         -9.2500820083084872E-032
  -88.364999999999995         -1.1200954179578646E-031
  -88.349999999999994         -1.3438988453558356E-031
  -88.334999999999994         -1.5970910421175849E-031
  -88.319999999999993         -1.8790622793233408E-031
  -88.305000000000007         -2.1874200733208747E-031
  -88.290000000000006         -2.5173808673989505E-031
  -88.275000000000006         -2.8610422832347302E-031
  -88.260000000000005         -3.2065266557097651E-031
  -88.245000000000005         -3.5369905613699928E-031
  -88.230000000000004         -3.8294963438489479E-031
  -88.215000000000003         -4.0537491627372383E-031
  -88.200000000000003         -4.1707094400508349E-031
  -88.185000000000002         -4.1311004526032674E-031
  -88.170000000000002         -3.8738388119484065E-031
  -88.155000000000001         -3.3244325006791631E-031
  -88.140000000000001         -2.3934024186132045E-031
  -88.125000000000000         -9.7480272927885623E-032
  -88.109999999999999          1.0550647194816740E-031
  -88.094999999999999          3.8386299349548370E-031
  -88.079999999999998          7.5375876311449698E-031
  -88.064999999999998          1.2332824054250957E-030
  -88.049999999999997          1.8423554933884054E-030
  -88.034999999999997          2.6025467496696981E-030
  -88.019999999999996          3.5367645843359907E-030
  -88.004999999999995          4.6688010030479263E-030
  -87.989999999999995          6.0227060559860405E-030
  -87.974999999999994          7.6219625467769362E-030
  -87.959999999999994          9.4884361749786769E-030
  -87.944999999999993          1.1641077414159287E-029
  -87.930000000000007          1.4094354060709591E-029
  -87.915000000000006          1.6856396397797164E-029
  -87.900000000000006          1.9926840304291896E-029
  -87.885000000000005          2.3294370941770511E-029
  -87.870000000000005          2.6933967771916436E-029
  -87.855000000000004          3.0803877235388462E-029
  -87.840000000000003          3.4842335661649752E-029
  -87.825000000000003          3.8964099585802404E-029
  -87.810000000000002          4.3056854190167723E-029
  -87.795000000000002          4.6977578111516191E-029
  -87.780000000000001          5.0548998526263577E-029
  -87.765000000000001          5.3556265912051331E-029
  -87.750000000000000          5.5743977884129402E-029
  -87.734999999999999          5.6813795857050054E-029
  -87.719999999999999          5.6422808004215140E-029
  -87.704999999999998          5.4182933423299556E-029
  -87.689999999999998          4.9661517970827786E-029
  -87.674999999999997          4.2383503942626874E-029
  -87.659999999999997          3.1835345128291503E-029
  -87.644999999999996          1.7470987726440974E-029
  -87.629999999999995         -1.2798306651639854E-030
  -87.614999999999995         -2.5000728321537143E-029
  -87.599999999999994         -5.4275065097014181E-029
  -87.584999999999994         -8.9669396354849619E-029
  -87.569999999999993         -1.3171384334003266E-028
  -87.555000000000007         -1.8087945240577396E-028
  -87.540000000000006         -2.3755243269123393E-028
  -87.525000000000006         -3.0200565235834577E-028
  -87.510000000000005         -3.7436724593372201E-028
  -87.495000000000005         -4.5458740405417592E-028
  -87.480000000000004         -5.4240302061517991E-028
  -87.465000000000003         -6.3730167788090545E-028
  -87.450000000000003         -7.3848512603765263E-028
  -87.435000000000002         -8.4483382200874916E-028
  -87.420000000000002         -9.5487298493928052E-028
  -87.405000000000001         -1.0667418776134770E-027
  -87.390000000000001         -1.1781678064004643E-027
  -87.375000000000000         -1.2864454175073619E-027
  -87.359999999999999         -1.3884235043591633E-027
  -87.344999999999999         -1.4805009631458532E-027
  -87.329999999999998         -1.5586325706122406E-027
  -87.314999999999998         -1.6183469915029391E-027
  -87.299999999999997         -1.6547765341800070E-027
  -87.284999999999997         -1.6627026988661326E-027
  -87.269999999999996         -1.6366146296184465E-027
  -87.254999999999995         -1.5707847070788380E-027
  -87.239999999999995         -1.4593581042163701E-027
  -87.224999999999994         -1.2964585198812256E-027
  -87.209999999999994         -1.0763081642402428E-027
  -87.194999999999993         -7.9336117757381285E-028
  -87.180000000000007         -4.4244874909718927E-028
  -87.165000000000006         -1.8933696912649391E-029
  -87.150000000000006          4.8112806683879310E-028
  -87.135000000000005          1.0608225319294028E-027
  -87.120000000000005          1.7222123934037427E-027
  -87.105000000000004          2.4661752493892215E-027
  -87.090000000000003          3.2922497433676613E-027
  -87.075000000000003          4.1984937675831418E-027
  -87.060000000000002          5.1813574479621687E-027
  -87.045000000000002          6.2355783735246981E-027
  -87.030000000000001          7.3540964702805954E-027
  -87.015000000000001          8.5279985344472365E-027
  -87.000000000000000          9.7464881879423753E-027
  -86.984999999999999          1.0996887419128100E-026
  -86.969999999999999          1.2264666242131974E-026
  -86.954999999999998          1.3533498934001418E-026
  -86.939999999999998          1.4785356479341032E-026
  -86.924999999999997          1.6000604407553778E-026
  -86.909999999999997          1.7158137607937083E-026
  -86.894999999999996          1.8235513604034992E-026
  -86.879999999999995          1.9209095842826028E-026
  -86.864999999999995          2.0054190820935236E-026
  -86.849999999999994          2.0745180588614355E-026
  -86.834999999999994          2.1255633683306614E-026
  -86.819999999999993          2.1558376003868688E-026
  -86.805000000000007          2.1625547818097048E-026
  -86.790000000000006          2.1428608384959832E-026
  -86.775000000000006          2.0938295895253996E-026
  -86.760000000000005          2.0124553515895457E-026
  -86.745000000000005          1.8956404589658689E-026
  -86.730000000000004          1.7401806264500956E-026
  -86.715000000000003          1.5427469226519514E-026
  -86.700000000000003          1.2998686677372548E-026
  -86.685000000000002          1.0079168704303960E-026
  -86.670000000000002          6.6309321169505433E-027
  -86.655000000000001          2.6142655880099948E-027
  -86.640000000000001         -2.0121946577122734E-027
  -86.625000000000000         -7.2912241020600852E-027
  -86.609999999999999         -1.3266571206685169E-026
  -86.594999999999999         -1.9982267352348083E-026
  -86.579999999999998         -2.7481649044285452E-026
  -86.564999999999998         -3.5806032872408226E-026
  -86.549999999999997         -4.4993023774438531E-026
  -86.534999999999997         -5.5074385727763160E-026
  -86.519999999999996         -6.6073510307114659E-026
  -86.504999999999995         -7.8002430722785562E-026
  -86.489999999999995         -9.0858367472680129E-026
  -86.474999999999994         -1.0461989188986513E-025
  -86.459999999999994         -1.1924271066710757E-025
  -86.444999999999993         -1.3465510525476637E-025
  -86.430000000000007         -1.5075322951024019E-025
  -86.415000000000006         -1.6739624711004377E-025
  -86.400000000000006         -1.8440154908057011E-025
  -86.385000000000005         -2.0154015621812715E-025
  -86.370000000000005         -2.1853266385084693E-025
  -86.355000000000004         -2.3504569196461206E-025
  -86.340000000000003         -2.5068922279750063E-025
  -86.325000000000003         -2.6501518335534708E-025
  -86.310000000000002         -2.7751737145603242E-025
  -86.295000000000002         -2.8763295949558475E-025
  -86.280000000000001         -2.9474599501844617E-025
  -86.265000000000001         -2.9819292274380938E-025
  -86.250000000000000         -2.9727064573799287E-025
  -86.234999999999999         -2.9124685456191864E-025
  -86.219999999999999         -2.7937306812795170E-025
  -86.204999999999998         -2.6090036161419784E-025
  -86.189999999999998         -2.3509760887293692E-025
  -86.174999999999997         -2.0127237491865955E-025
  -86.159999999999997         -1.5879390382788330E-025
  -86.144999999999996         -1.0711832531026487E-025
  -86.129999999999995         -4.5815278764151262E-026
  -86.114999999999995          2.5404257806095782E-026
  -86.099999999999994          1.0665981223505680E-025
  -86.084999999999994          1.9787340747114344E-025
  -86.069999999999993          2.9874270949094185E-025
  -86.055000000000007          4.0871600869886307E-025
  -86.040000000000006          5.2697012874030898E-025
  -86.025000000000006          6.5239225804894890E-025
  -86.010000000000005          7.8356646525562098E-025
  -85.995000000000005          9.1876608175021616E-025
  -85.980000000000004          1.0559529374726762E-024
  -85.965000000000003          1.1927836224964290E-024
  -85.950000000000003          1.3266248205122336E-024
  -85.935000000000002          1.4545768760477239E-024
  -85.920000000000002          1.5735065321949751E-024
  -85.905000000000001          1.6800897263146123E-024
  -85.890000000000001          1.7708633590327153E-024
  -85.875000000000000          1.8422854448848415E-024
  -85.859999999999999          1.8908049265061388E-024
  -85.844999999999999          1.9129381941391510E-024
  -85.829999999999998          1.9053519160288668E-024
  -85.814999999999998          1.8649513908441043E-024
  -85.799999999999997          1.7889712666816110E-024
  -85.784999999999997          1.6750682322224280E-024
  -85.769999999999996          1.5214118343436031E-024
  -85.754999999999995          1.3267732249700283E-024
  -85.739999999999995          1.0906075970390353E-024
  -85.724999999999994          8.1312883046355210E-025
  -85.709999999999994          4.9537338986542603E-025
  -85.694999999999993          1.3925225380970004E-025
  -85.680000000000007         -2.5241211966640661E-025
  -85.665000000000006         -6.7586515941044614E-025
  -85.650000000000006         -1.1264175434010905E-024
  -85.635000000000005         -1.5984608650326709E-024
  -85.620000000000005         -2.0855036865237367E-024
  -85.605000000000004         -2.5802261675347422E-024
  -85.590000000000003         -3.0745544153083636E-024
  -85.575000000000003         -3.5597525841801832E-024
  -85.560000000000002         -4.0265314425607712E-024
  -85.545000000000002         -4.4651724213130309E-024
  -85.530000000000001         -4.8656644811192550E-024
  -85.515000000000001         -5.2178482768115549E-024
  -85.500000000000000         -5.5115703796788307E-024
  -85.484999999999999         -5.7368390774955533E-024
  -85.469999999999999         -5.8839829355637130E-024
  -85.454999999999998         -5.9438065967416010E-024
  -85.439999999999998         -5.9077418483071594E-024
  -85.424999999999997         -5.7679927723645415E-024
  -85.409999999999997         -5.5176745853634309E-024
  -85.394999999999996         -5.1509406447047821E-024
  -85.379999999999995         -4.6631047221811297E-024
  -85.364999999999995         -4.0507514445033193E-024
  -85.349999999999994         -3.3118439728140702E-024
  -85.334999999999994         -2.4458275406817859E-024
  -85.319999999999993         -1.4537298366507428E-024
  -85.305000000000007         -3.3826814141278146E-025
  -85.290000000000006          8.9603850603273305E-025
  -85.275000000000006          2.2427447669634990E-024
  -85.260000000000005          3.6933382898703094E-024
  -85.245000000000005          5.2370807056808431E-024
  -85.230000000000004          6.8608274223466288E-024
  -85.215000000000003          8.5488225210076873E-024
  -85.200000000000003          1.0282474522280222E-023
  -85.185000000000002          1.2040111839376002E-023
  -85.170000000000002          1.3796722848434089E-023
  -85.155000000000001          1.5523693986700307E-023
  -85.140000000000001          1.7188551795011233E-023
  -85.125000000000000          1.8754729414966253E-023
  -85.109999999999999          2.0181370162562159E-023
  -85.094999999999999          2.1423201310448317E-023
  -85.079999999999998          2.2430482023106923E-023
  -85.064999999999998          2.3149080665221709E-023
  -85.049999999999997          2.3520687794122361E-023
  -85.034999999999997          2.3483212167958932E-023
  -85.019999999999996          2.2971378702268003E-023
  -85.004999999999995          2.1917561507088600E-023
  -84.989999999999995          2.0252899336282169E-023
  -84.974999999999994          1.7908671360951286E-023
  -84.959999999999994          1.4818005842160368E-023
  -84.944999999999993          1.0917886993078548E-023
  -84.930000000000007          6.1514868518155159E-024
  -84.915000000000006          4.7080505652941626E-025
  -84.900000000000006         -6.1604072909317551E-024
  -84.885000000000005         -1.3763477094444455E-023
  -84.870000000000005         -2.2341433826403765E-023
  -84.855000000000004         -3.1875515219039908E-023
  -84.840000000000003         -4.2321614481420167E-023
  -84.825000000000003         -5.3606790378804187E-023
  -84.810000000000002         -6.5625938239623940E-023
  -84.795000000000002         -7.8238744952389576E-023
  -84.780000000000001         -9.1267104657363917E-023
  -84.765000000000001         -1.0449310872897595E-022
  -84.750000000000000         -1.1765778359837248E-022
  -84.734999999999999         -1.3046070578929638E-022
  -84.719999999999999         -1.4256069611568318E-022
  -84.704999999999998         -1.5357773819138258E-022
  -84.689999999999998         -1.6309614649555379E-022
  -84.674999999999997         -1.7066929953809689E-022
  -84.659999999999997         -1.7582582452914973E-022
  -84.644999999999996         -1.7807739763571879E-022
  -84.629999999999995         -1.7692814720366937E-022
  -84.614999999999995         -1.7188571043217321E-022
  -84.599999999999994         -1.6247366582157476E-022
  -84.584999999999994         -1.4824546761242098E-022
  -84.569999999999993         -1.2879952880596922E-022
  -84.555000000000007         -1.0379525081778123E-022
  -84.540000000000006         -7.2969753639801186E-023
  -84.525000000000006         -3.6154864748810435E-023
  -84.510000000000005          6.7059598271554502E-024
  -84.495000000000005          5.5541291888572328E-023
  -84.480000000000004          1.1013640507476085E-022
  -84.465000000000003          1.7011957077224096E-022
  -84.450000000000003          2.3495046974803419E-022
  -84.435000000000002          3.0391115022596805E-022
  -84.420000000000002          3.7610040488614357E-022
  -84.405000000000001          4.5043175138101795E-022
  -84.390000000000001          5.2563556541529228E-022
  -84.375000000000000          6.0026604796542647E-022
  -84.359999999999999          6.7271281206861509E-022
  -84.344999999999999          7.4121819989737883E-022
  -84.329999999999998          8.0389939610845964E-022
  -84.314999999999998          8.5877634720797828E-022
  -84.299999999999997          9.0380467913928743E-022
  -84.284999999999997          9.3691391601610783E-022
  -84.269999999999996          9.5604973782349911E-022
  -84.254999999999995          9.5922113536733035E-022
  -84.239999999999995          9.4454968568186375E-022
  -84.224999999999994          9.1032246250838965E-022
  -84.209999999999994          8.5504555261903672E-022
  -84.194999999999993          7.7749792555026765E-022
  -84.180000000000007          6.7678489943959147E-022
  -84.165000000000006          5.5238883007188939E-022
  -84.150000000000006          4.0421616485468944E-022
  -84.135000000000005          2.3263982673688219E-022
  -84.120000000000005          3.8534968540388958E-023
  -84.105000000000004         -1.7669286470552177E-022
  -84.090000000000003         -4.1108854435613213E-022
  -84.075000000000003         -6.6213833989340640E-022
  -84.060000000000002         -9.2677156291211749E-022
  -84.045000000000002         -1.2013741197501986E-021
  -84.030000000000001         -1.4818142977740131E-021
  -84.015000000000001         -1.7634814132518232E-021
  -84.000000000000000         -2.0413361469904302E-021
  -83.984999999999999         -2.3099737541817880E-021
  -83.969999999999999         -2.5636990882305333E-021
  -83.954999999999998         -2.7966118229752985E-021
  -83.939999999999998         -3.0027013684328278E-021
  -83.924999999999997         -3.1759502683745464E-021
  -83.909999999999997         -3.3104434544064898E-021
  -83.894999999999996         -3.4004829526558105E-021
  -83.879999999999995         -3.4407050138379850E-021
  -83.864999999999995         -3.4261966374788457E-021
  -83.849999999999994         -3.3526114902914379E-021
  -83.834999999999994         -3.2162807758430834E-021
  -83.819999999999993         -3.0143188535642580E-021
  -83.805000000000007         -2.7447203759250176E-021
  -83.790000000000006         -2.4064459145530940E-021
  -83.775000000000006         -1.9994976908807962E-021
  -83.760000000000005         -1.5249801606625317E-021
  -83.745000000000005         -9.8514716892427649E-022
  -83.730000000000004         -3.8343322672074566E-022
  -83.715000000000003          2.7553109029973693E-022
  -83.700000000000003          9.8591952054847304E-022
  -83.685000000000002          1.7407268782129042E-021
  -83.670000000000002          2.5318003300137820E-021
  -83.655000000000001          3.3498878123320867E-021
  -83.640000000000001          4.1846970253829637E-021
  -83.625000000000000          5.0249707599658407E-021
  -83.609999999999999          5.8585721196857412E-021
  -83.594999999999999          6.6725796386457918E-021
  -83.579999999999998          7.4533949199400183E-021
  -83.564999999999998          8.1868577462366352E-021
  -83.549999999999997          8.8583692682970053E-021
  -83.534999999999997          9.4530224636367011E-021
  -83.519999999999996          9.9557406731222367E-021
  -83.504999999999995          1.0351427850574519E-020
  -83.489999999999995          1.0625124466927270E-020
  -83.474999999999994          1.0762171492321114E-020
  -83.459999999999994          1.0748393765243278E-020
  -83.444999999999993          1.0570288208428686E-020
  -83.430000000000007          1.0215231431806670E-020
  -83.415000000000006          9.6717042991125731E-021
  -83.400000000000006          8.9295358815449757E-021
  -83.385000000000005          7.9801627595006796E-021
  -83.370000000000005          6.8169157892909761E-021
  -83.355000000000004          5.4353234296260337E-021
  -83.340000000000003          3.8334368785255945E-021
  -83.325000000000003          2.0121739914301013E-021
  -83.310000000000002         -2.4323850747555030E-023
  -83.295000000000002         -2.2683233120248607E-021
  -83.280000000000001         -4.7081270619250028E-021
  -83.265000000000001         -7.3277103188588410E-021
  -83.250000000000000         -1.0106365900582882E-020
  -83.234999999999999         -1.3018386584622625E-020
  -83.219999999999999         -1.6032779755195042E-020
  -83.204999999999998         -1.9113046875564797E-020
  -83.189999999999998         -2.2217034046234364E-020
  -83.174999999999997         -2.5296869804839370E-020
  -83.159999999999997         -2.8299028134046818E-020
  -83.144999999999996         -3.1164507791726950E-020
  -83.129999999999995         -3.3829157043967156E-020
  -83.114999999999995         -3.6224184190606289E-020
  -83.099999999999994         -3.8276816724785288E-020
  -83.084999999999994         -3.9911176981173752E-020
  -83.069999999999993         -4.1049351654652576E-020
  -83.055000000000007         -4.1612658420626920E-020
  -83.040000000000006         -4.1523129044015126E-020
  -83.025000000000006         -4.0705183127519429E-020
  -83.010000000000005         -3.9087489268004201E-020
  -82.995000000000005         -3.6604991002761853E-020
  -82.980000000000004         -3.3201074927446521E-020
  -82.965000000000003         -2.8829842211584314E-020
  -82.950000000000003         -2.3458438275220392E-020
  -82.935000000000002         -1.7069401852611643E-020
  -82.920000000000002         -9.6629744740345842E-021
  -82.905000000000001         -1.2592955438293420E-021
  -82.890000000000001          8.0995627266310146E-021
  -82.875000000000000          1.8347806258138079E-020
  -82.859999999999999          2.9394447909614308E-020
  -82.844999999999999          4.1122211403216866E-020
  -82.829999999999998          5.3386912049594373E-020
  -82.814999999999998          6.6017368698388101E-020
  -82.799999999999997          7.8815869027326537E-020
  -82.784999999999997          9.1559348920833126E-020
  -82.769999999999996          1.0400122454583610E-019
  -82.754999999999995          1.1587394174826578E-019
  -82.739999999999995          1.2689228477550474E-019
  -82.724999999999994          1.3675747340535943E-019
  -82.709999999999994          1.4516191277223376E-019
  -82.694999999999993          1.5179468636338435E-019
  -82.680000000000007          1.5634770817472642E-019
  -82.665000000000006          1.5852235308043126E-019
  -82.650000000000006          1.5803665588919485E-019
  -82.635000000000005          1.5463279474384207E-019
  -82.620000000000005          1.4808476839138695E-019
  -82.605000000000004          1.3820613807657827E-019
  -82.590000000000003          1.2485769188726279E-019
  -82.575000000000003          1.0795474720823037E-019
  -82.560000000000002          8.7473974961267614E-020
  -82.545000000000002          6.3459551760963679E-020
  -82.530000000000001          3.6028387954675573E-020
  -82.515000000000001          5.3743192633470314E-021
  -82.500000000000000         -2.8229005356489644E-020
  -82.484999999999999         -6.4426616369917667E-020
  -82.469999999999999         -1.0278235452619361E-019
  -82.454999999999998         -1.4278064073445258E-019
  -82.439999999999998         -1.8383006024376478E-019
  -82.424999999999997         -2.2526878455355682E-019
  -82.409999999999997         -2.6637193202859376E-019
  -82.394999999999996         -3.0636058287518620E-019
  -82.379999999999995         -3.4441290730536857E-019
  -82.364999999999995         -3.7967659909548154E-019
  -82.349999999999994         -4.1128306690355616E-019
  -82.334999999999994         -4.3836296975519333E-019
  -82.319999999999993         -4.6006270895702662E-019
  -82.305000000000007         -4.7556179888958583E-019
  -82.290000000000006         -4.8409085818562010E-019
  -82.275000000000006         -4.8494962675781500E-019
  -82.260000000000005         -4.7752490527832731E-019
  -82.245000000000005         -4.6130787427286034E-019
  -82.230000000000004         -4.3591043093776189E-019
  -82.215000000000003         -4.0108056952953883E-019
  -82.200000000000003         -3.5671561625465803E-019
  -82.185000000000002         -3.0287370640054548E-019
  -82.170000000000002         -2.3978283162353610E-019
  -82.155000000000001         -1.6784741861968297E-019
  -82.140000000000001         -8.7651780018875301E-020
  -82.125000000000000          3.9277346605630727E-023
  -82.109999999999999          9.4283131893348070E-020
  -82.094999999999999          1.9396527164482975E-019
  -82.079999999999998          2.9780854346775944E-019
  -82.064999999999998          4.0438554381760031E-019
  -82.049999999999997          5.1213429720391084E-019
  -82.034999999999997          6.1937660926018577E-019
  -82.019999999999996          7.2433952174099426E-019
  -82.004999999999995          8.2517868037428449E-019
  -81.989999999999995          9.2000423595431421E-019
  -81.974999999999994          1.0069083480970181E-018
  -81.960000000000008          1.0839936195735645E-018
  -81.944999999999993          1.1494030299087717E-018
  -81.930000000000007          1.2013496621843722E-018
  -81.915000000000006          1.2381471019265233E-018
  -81.900000000000006          1.2582385952224004E-018
  -81.885000000000005          1.2602262068367887E-018
  -81.870000000000005          1.2428979103771451E-018
  -81.855000000000004          1.2052536444828927E-018
  -81.840000000000003          1.1465290942680328E-018