  -90.000000000000000          0.0000000000000000     
  -89.984999999999999          0.0000000000000000     
  -89.969999999999999          0.0000000000000000     
  -89.954999999999998          0.0000000000000000     
  -89.939999999999998          0.0000000000000000     
  -89.924999999999997          0.0000000000000000     
  -89.909999999999997         -2.0872693328744323E-027
  -89.894999999999996         -2.6707261887782499E-026
  -89.879999999999995         -1.8356658911620024E-025
  -89.864999999999995         -8.9903174012998102E-025
  -89.849999999999994         -3.5137931534115545E-024
  -89.834999999999994         -1.1644166773827472E-023
  -89.819999999999993         -3.3960569254847668E-023
  -89.805000000000007         -8.9380976098303928E-023
  -89.790000000000006         -2.1609419500190427E-022
  -89.775000000000006         -4.8628677956608474E-022
  -89.760000000000005         -1.0288914120067286E-021
  -89.745000000000005         -2.0630235867274132E-021
  -89.730000000000004         -3.9449123907641861E-021
  -89.715000000000003         -7.2309326105708376E-021
  -89.700000000000003         -1.2758631677441801E-020
  -89.685000000000002         -2.1746303654206336E-020
  -89.670000000000002         -3.5909429042832790E-020
  -89.655000000000001         -5.7589199587691160E-020
  -89.640000000000001         -8.9883997987683538E-020
  -89.625000000000000         -1.3676949337363559E-019
  -89.609999999999999         -2.0318631922205291E-019
  -89.594999999999999         -2.9506716352018214E-019
  -89.579999999999998         -4.1926685907955313E-019
  -89.564999999999998         -5.8335030864408719E-019
  -89.549999999999997         -7.9518547325462970E-019
  -89.534999999999997         -1.0622808522770835E-018
  -89.519999999999996         -1.3908010092265000E-018
  -89.504999999999995         -1.7841911513541627E-018
  -89.489999999999995         -2.2413418226634846E-018
  -89.474999999999994         -2.7542291644175484E-018
  -89.459999999999994         -3.3049788375548488E-018
  -89.444999999999993         -3.8623143159341433E-018
  -89.430000000000007         -4.3773818989877437E-018
  -89.415000000000006         -4.7789669194439692E-018
  -89.400000000000006         -4.9681654594113856E-018
  -89.385000000000005         -4.8126157995820138E-018
  -89.370000000000005         -4.1404525561341800E-018
  -89.355000000000004         -2.7342053965343242E-018
  -89.340000000000003         -3.2493257123519749E-019
  -89.325000000000003          3.4130634262698559E-018
  -89.310000000000002          8.8665125900089513E-018
  -89.295000000000002          1.6485974305977859E-017
  -89.280000000000001          2.6786619554806747E-017
  -89.265000000000001          4.0346425900266019E-017
  -89.250000000000000          5.7801210683278235E-017
  -89.234999999999999          7.9835899303372002E-017
  -89.219999999999999          1.0717147230861589E-016
  -89.204999999999998          1.4054710491183219E-016
  -89.189999999999998          1.8069706218172706E-016
  -89.174999999999997          2.2832212491581054E-016
  -89.159999999999997          2.8405538406770620E-016
  -89.144999999999996          3.4842255593008336E-016
  -89.129999999999995          4.2179718203268115E-016
  -89.114999999999995          5.0435121006379220E-016
  -89.099999999999994          5.9600208078083882E-016
  -89.084999999999994          6.9635722088254824E-016
  -89.069999999999993          8.0465795354597663E-016
  -89.055000000000007          9.1972436187559873E-016
  -89.040000000000006          1.0399031963770518E-015
  -89.025000000000006          1.1630218704801877E-015
  -89.010000000000005          1.2863505028751243E-015
  -88.995000000000005          1.4065747595183738E-015
  -88.980000000000004          1.5197829363803976E-015
  -88.965000000000003          1.6214696652147500E-015
  -88.950000000000003          1.7065587834476544E-015
  -88.935000000000002          1.7694479092868524E-015
  -88.920000000000002          1.8040762043573843E-015
  -88.905000000000001          1.8040162767763660E-015
  -88.890000000000001          1.7625935069194337E-015
  -88.875000000000000          1.6730277136811720E-015
  -88.859999999999999          1.5286003376030781E-015
  -88.844999999999999          1.3228430115834445E-015
  -88.829999999999998          1.0497444486747259E-015
  -88.814999999999998          7.0397120004541715E-016
  -88.799999999999997          2.8109754501589419E-016
  -88.784999999999997         -2.2216308365852850E-016
  -88.769999999999996         -8.0773146553464806E-016
  -88.754999999999995         -1.4759496166346980E-015
  -88.739999999999995         -2.2253893335304892E-015
  -88.724999999999994         -3.0526912835532110E-015
  -88.709999999999994         -3.9524441967193295E-015
  -88.694999999999993         -4.9171113856224125E-015
  -88.680000000000007         -5.9370131694994749E-015
  -88.665000000000006         -7.0003685906036301E-015
  -88.650000000000006         -8.0934082813443123E-015
  -88.635000000000005         -9.2005514941732522E-015
  -88.620000000000005         -1.0304657246853338E-014
  -88.605000000000004         -1.1387343230363257E-014
  -88.590000000000003         -1.2429364856141392E-014
  -88.575000000000003         -1.3411057407284287E-014
  -88.560000000000002         -1.4312815459194793E-014
  -88.545000000000002         -1.5115612957811685E-014
  -88.530000000000001         -1.5801536850366428E-014
  -88.515000000000001         -1.6354322410205846E-014
  -88.500000000000000         -1.6759863150626365E-014
  -88.484999999999999         -1.7006685163324479E-014
  -88.469999999999999         -1.7086357082343219E-014
  -88.454999999999998         -1.6993822120987476E-014
  -88.439999999999998         -1.6727611524126711E-014
  -88.424999999999997         -1.6289956376543992E-014
  -88.409999999999997         -1.5686753721618103E-014
  -88.394999999999996         -1.4927383602206939E-014
  -88.379999999999995         -1.4024384647028706E-014
  -88.364999999999995         -1.2992968720783142E-014
  -88.349999999999994         -1.1850386496474030E-014
  -88.334999999999994         -1.0615165972789609E-014
  -88.319999999999993         -9.3062239365409097E-015
  -88.305000000000007         -7.9418927218053575E-015
  -88.290000000000006         -6.5388830180828587E-015
  -88.275000000000006         -5.1112225380128915E-015
  -88.260000000000005         -3.6692112022340684E-015
  -88.245000000000005         -2.2184419692971094E-015
  -88.230000000000004         -7.5892982109726915E-016
  -88.215000000000003          7.1560069771342267E-016
  -88.200000000000003          2.2182223760055337E-015
  -88.185000000000002          3.7690645282540888E-015
  -88.170000000000002          5.3952852012699882E-015
  -88.155000000000001          7.1307256906366460E-015
  -88.140000000000001          9.0152240734458003E-015
  -88.125000000000000          1.1093582039860099E-014
  -88.109999999999999          1.3414175335563130E-014
  -88.094999999999999          1.6027238943557703E-014
  -88.079999999999998          1.8982838440257180E-014
  -88.064999999999998          2.2328588088725565E-014
  -88.049999999999997          2.6107161408845531E-014
  -88.034999999999997          3.0353672998478451E-014
  -88.019999999999996          3.5093022238141813E-014
  -88.004999999999995          4.0337267488872730E-014
  -87.989999999999995          4.6083186637339846E-014
  -87.974999999999994          5.2310054481389742E-014
  -87.959999999999994          5.8977826691408025E-014
  -87.944999999999993          6.6025804886394451E-014
  -87.930000000000007          7.3371816706069987E-014
  -87.915000000000006          8.0912151436372814E-014
  -87.900000000000006          8.8522159708784992E-014
  -87.885000000000005          9.6057696844474572E-014
  -87.870000000000005          1.0335736579753993E-013
  -87.855000000000004          1.1024558680241062E-013
  -87.840000000000003          1.1653651405419546E-013
  -87.825000000000003          1.2203865034417921E-013
  -87.810000000000002          1.2656017997925845E-013
  -87.795000000000002          1.2991476926356438E-013
  -87.780000000000001          1.3192787519985399E-013
  -87.765000000000001          1.3244318293990920E-013
  -87.750000000000000          1.3132907033999025E-013
  -87.734999999999999          1.2848492343849049E-013
  -87.719999999999999          1.2384696404261347E-013
  -87.704999999999998          1.1739339968869222E-013
  -87.689999999999998          1.0914865880692556E-013
  -87.674999999999997          9.9186467145042506E-014
  -87.659999999999997          8.7631562162987509E-014
  -87.644999999999996          7.4659848886982766E-014
  -87.629999999999995          6.0496854921432419E-014
  -87.614999999999995          4.5414362645924272E-014
  -87.599999999999994          2.9725211821065439E-014
  -87.584999999999994          1.3776209075680879E-014
  -87.569999999999993         -2.0607225286942274E-015
  -87.555000000000007         -1.7399057929546984E-014
  -87.540000000000006         -3.1849628051019638E-014
  -87.525000000000006         -4.5033753473273236E-014
  -87.510000000000005         -5.6597223652490869E-014
  -87.495000000000005         -6.6224735656254807E-014
  -87.480000000000004         -7.3654325910901819E-014
  -87.465000000000003         -7.8691353021416444E-014
  -87.450000000000003         -8.1221487868710085E-014
  -87.435000000000002         -8.1222226481440091E-014
  -87.420000000000002         -7.8772390357546157E-014
  -87.405000000000001         -7.4059153449580750E-014
  -87.390000000000001         -6.7382101146592349E-014
  -87.375000000000000         -5.9153948558064717E-014
  -87.359999999999999         -4.9897653825632660E-014
  -87.344999999999999         -4.0239614754449676E-014
  -87.329999999999998         -3.0898911494757833E-014
  -87.314999999999998         -2.2672537675419435E-014
  -87.299999999999997         -1.6416801254461218E-014
  -87.284999999999997         -1.3025139032119860E-014
  -87.269999999999996         -1.3402737002643408E-014
  -87.254999999999995         -1.8438518127692621E-014
  -87.239999999999995         -2.8975133653085655E-014
  -87.224999999999994         -4.5777760109087101E-014
  -87.209999999999994         -6.9502529545430874E-014
  -87.194999999999993         -1.0066561028764659E-013
  -87.180000000000007         -1.3961385216323952E-013
  -87.165000000000006         -1.8649810157572028E-013
  -87.150000000000006         -2.4125013510338522E-013
  -87.135000000000005         -3.0356424839117491E-013
  -87.120000000000005         -3.7288436769734867E-013
  -87.105000000000004         -4.4839739560265102E-013
  -87.090000000000003         -5.2903373955887067E-013
  -87.075000000000003         -6.1347492840910234E-013
  -87.060000000000002         -7.0016930621419338E-013
  -87.045000000000002         -7.8735542391461522E-013
  -87.030000000000001         -8.7309293909237917E-013
  -87.015000000000001         -9.5530094251783382E-013
  -87.000000000000000         -1.0318024646488455E-012
  -86.984999999999999         -1.1003753247126880E-012
  -86.969999999999999         -1.1588065576551010E-012
  -86.954999999999998         -1.2049511778980393E-012
  -86.939999999999998         -1.2367914851985073E-012
  -86.924999999999997         -1.2524970210286979E-012
  -86.909999999999997         -1.2504828986528715E-012
  -86.894999999999996         -1.2294643384966331E-012
  -86.879999999999995         -1.1885059993457792E-012
  -86.864999999999995         -1.1270645874916774E-012
  -86.849999999999994         -1.0450220333177440E-012
  -86.834999999999994         -9.4270977742810791E-013
  -86.819999999999993         -8.2092069687150770E-013
  -86.805000000000007         -6.8090980987270400E-013
  -86.790000000000006         -5.2438137382662675E-013
  -86.775000000000006         -3.5346392154335382E-013
  -86.760000000000005         -1.7067162299318900E-013
  -86.745000000000005          2.1146009815680052E-014
  -86.730000000000004          2.1886607652100987E-013
  -86.715000000000003          4.1916410663603298E-013
  -86.700000000000003          6.1859409738670990E-013
  -86.685000000000002          8.1367491954267845E-013
  -86.670000000000002          1.0009802231883413E-012
  -86.655000000000001          1.1772304051721472E-012
  -86.640000000000001          1.3393822726262550E-012
  -86.625000000000000          1.4847151286190297E-012
  -86.609999999999999          1.6109099731237420E-012
  -86.594999999999999          1.7161187835373903E-012
  -86.579999999999998          1.7990220858160599E-012
  -86.564999999999998          1.8588717804607358E-012
  -86.549999999999997          1.8955186812524838E-012
  -86.534999999999997          1.9094211888698309E-012
  -86.519999999999996          1.9016368341118195E-012
  -86.504999999999995          1.8737951728436952E-012
  -86.489999999999995          1.8280505147821868E-012
  -86.474999999999994          1.7670191481897191E-012
  -86.459999999999994          1.6936990004934316E-012
  -86.444999999999993          1.6113759632174762E-012
  -86.430000000000007          1.5235176401701134E-012
  -86.415000000000006          1.4336602651571217E-012
  -86.400000000000006          1.3452892229023905E-012
  -86.385000000000005          1.2617192447078596E-012
  -86.370000000000005          1.1859775314593257E-012
  -86.355000000000004          1.1206931650048491E-012
  -86.340000000000003          1.0679977952357533E-012
  -86.325000000000003          1.0294418312586928E-012
  -86.310000000000002          1.0059272208609582E-012
  -86.295000000000002          9.9766310664162194E-013
  -86.280000000000001          1.0041439251276540E-012
  -86.265000000000001          1.0241535267421775E-012
  -86.250000000000000          1.0557950997844290E-012
  -86.234999999999999          1.0965479826235969E-012
  -86.219999999999999          1.1433488704415407E-012
  -86.204999999999998          1.1926980670456944E-012
  -86.189999999999998          1.2407852523210749E-012
  -86.174999999999997          1.2836340063798746E-012
  -86.159999999999997          1.3172583683551675E-012
  -86.144999999999996          1.3378279603917798E-012
  -86.129999999999995          1.3418352800415034E-012
  -86.114999999999995          1.3262598484720112E-012
  -86.099999999999994          1.2887223840157835E-012
  -86.084999999999994          1.2276232547875354E-012
  -86.069999999999993          1.1422594640986272E-012
  -86.055000000000007          1.0329138802958604E-012
  -86.040000000000006          9.0091280789683648E-013
  -86.025000000000006          7.4864696690199461E-013
  -86.010000000000005          5.7955333240822249E-013
  -85.995000000000005          3.9805580164496701E-013
  -85.980000000000004          2.0946432251461172E-013
  -85.965000000000003          1.9832995245020954E-014
  -85.950000000000003         -1.6422025414866703E-013
  -85.935000000000002         -3.3572884056143337E-013
  -85.920000000000002         -4.8762225811002646E-013
  -85.905000000000001         -6.1299392211527914E-013
  -85.890000000000001         -7.0538448129417453E-013
  -85.875000000000000         -7.5907184184098586E-013
  -85.859999999999999         -7.6935826416255071E-013
  -85.844999999999999         -7.3284499128856151E-013
  -85.829999999999998         -6.4768383798569085E-013
  -85.814999999999998         -5.1379544065491278E-013
  -85.799999999999997         -3.3304544018453175E-013
  -85.784999999999997         -1.0936862309893214E-013
  -85.769999999999996          1.5116605341612688E-013
  -85.754999999999995          4.4035605782470622E-013
  -85.739999999999995          7.4793632658803899E-013
  -85.724999999999994          1.0617229751624935E-012
  -85.709999999999994          1.3678307618503194E-012
  -85.694999999999993          1.6509625697797015E-012
  -85.680000000000007          1.8947660281043444E-012
  -85.665000000000006          2.0822510382600967E-012
  -85.650000000000006          2.1962609682291134E-012
  -85.635000000000005          2.2199848296461377E-012
  -85.620000000000005          2.1374972104803991E-012
  -85.605000000000004          1.9343140370692291E-012
  -85.590000000000003          1.5979455172260293E-012
  -85.575000000000003          1.1184319529539133E-012
  -85.560000000000002          4.8884426237863488E-013
  -85.545000000000002         -2.9426802791374107E-013
  -85.530000000000001         -1.2304962821244048E-012
  -85.515000000000001         -2.3152762259476267E-012
  -85.500000000000000         -3.5396889412619981E-012
  -85.484999999999999         -4.8903689257862037E-012
  -85.469999999999999         -6.3495307102423570E-012
  -85.454999999999998         -7.8951194540377578E-012
  -85.439999999999998         -9.5010839473719244E-012
  -85.424999999999997         -1.1137778199721282E-011
  -85.409999999999997         -1.2772482724243694E-011
  -85.394999999999996         -1.4370036410804587E-011
  -85.379999999999995         -1.5893569446645550E-011
  -85.364999999999995         -1.7305329044758899E-011
  -85.349999999999994         -1.8567552009796096E-011
  -85.334999999999994         -1.9643410162362152E-011
  -85.319999999999993         -2.0497955763310038E-011
  -85.305000000000007         -2.1099079081099426E-011
  -85.290000000000006         -2.1418432999409376E-011
  -85.275000000000006         -2.1432298644152858E-011
  -85.260000000000005         -2.1122383356275698E-011
  -85.245000000000005         -2.0476502438082633E-011
  -85.230000000000004         -1.9489135999473106E-011
  -85.215000000000003         -1.8161850495745924E-011
  -85.200000000000003         -1.6503539854162419E-011
  -85.185000000000002         -1.4530503536502870E-011
  -85.170000000000002         -1.2266343323019679E-011
  -85.155000000000001         -9.7416571337438640E-012
  -85.140000000000001         -6.9935641479335064E-012
  -85.125000000000000         -4.0650412723441942E-012
  -85.109999999999999         -1.0041002317801029E-012
  -85.094999999999999          2.1371897307442822E-012
  -85.079999999999998          5.3038042707731492E-012
  -85.064999999999998          8.4389691415442947E-012
  -85.049999999999997          1.1485437600988746E-011
  -85.034999999999997          1.4386810319455545E-011
  -85.019999999999996          1.7088859841085657E-011
  -85.004999999999995          1.9540827289610263E-011
  -84.989999999999995          2.1696663562997820E-011
  -84.974999999999994          2.3516159505798662E-011
  -84.959999999999994          2.4965966793910610E-011
  -84.944999999999993          2.6020444479635252E-011
  -84.930000000000007          2.6662326860216190E-011
  -84.915000000000006          2.6883202261518413E-011
  -84.900000000000006          2.6683752429867980E-011
  -84.885000000000005          2.6073783757074587E-011
  -84.870000000000005          2.5072012174720548E-011
  -84.855000000000004          2.3705636412185704E-011
  -84.840000000000003          2.2009685740620455E-011
  -84.825000000000003          2.0026163019548626E-011
  -84.810000000000002          1.7803024679463597E-011
  -84.795000000000002          1.5392990701523779E-011
  -84.780000000000001          1.2852248779116060E-011
  -84.765000000000001          1.0239073477968930E-011
  -84.750000000000000          7.6123933545613198E-012
  -84.734999999999999          5.0303602429357941E-012
  -84.719999999999999          2.5489532359812550E-012
  -84.704999999999998          2.2065305854170048E-013
  -84.689999999999998         -1.9067664114302829E-012
  -84.674999999999997         -3.7913027751967920E-012
  -84.659999999999997         -5.3976120448218090E-012
  -84.644999999999996         -6.6976944823604612E-012
  -84.629999999999995         -7.6713626770419374E-012
  -84.614999999999995         -8.3064752992578761E-012
  -84.599999999999994         -8.5989384016049719E-012
  -84.584999999999994         -8.5524738333009331E-012
  -84.569999999999993         -8.1781630079102996E-012
  -84.555000000000007         -7.4937851063383576E-012
  -84.540000000000006         -6.5229805064348501E-012
  -84.525000000000006         -5.2942589548465868E-012
  -84.510000000000005         -3.8398949818441164E-012
  -84.495000000000005         -2.1947448199111097E-012
  -84.480000000000004         -3.9503366940432660E-013
  -84.465000000000003          1.5228513979351210E-012
  -84.450000000000003          3.5235148132528593E-012
  -84.435000000000002          5.5736118845239879E-012
  -84.420000000000002          7.6427753015195776E-012
  -84.405000000000001          9.7043779262451224E-012
  -84.390000000000001          1.1736094734926539E-011
  -84.375000000000000          1.3720252364790575E-011
  -84.359999999999999          1.5643947942622916E-011
  -84.344999999999999          1.7498929388848339E-011
  -84.329999999999998          1.9281241533941618E-011
  -84.314999999999998          2.0990646720786543E-011
  -84.299999999999997          2.2629854587452591E-011
  -84.284999999999997          2.4203562765112707E-011
  -84.269999999999996          2.5717370941147344E-011
  -84.254999999999995          2.7176599512457322E-011
  -84.239999999999995          2.8585054462348936E-011
  -84.224999999999994          2.9943793972142529E-011
  -84.209999999999994          3.1249960952273170E-011
  -84.194999999999993          3.2495717922076395E-011
  -84.180000000000007          3.3667339749410274E-011
  -84.165000000000006          3.4744523230711977E-011
  -84.150000000000006          3.5699946471234867E-011
  -84.135000000000005          3.6499098882147862E-011
  -84.120000000000005          3.7100458122329982E-011
  -84.105000000000004          3.7455958473708861E-011
  -84.090000000000003          3.7511840855763978E-011
  -84.075000000000003          3.7209787334679945E-011
  -84.060000000000002          3.6488412985535845E-011
  -84.045000000000002          3.5285021432462926E-011
  -84.030000000000001          3.3537624066770633E-011
  -84.015000000000001          3.1187136206867194E-011
  -84.000000000000000          2.8179715505505243E-011
  -83.984999999999999          2.4469181889030800E-011
  -83.969999999999999          2.0019413210503600E-011
  -83.954999999999998          1.4806664574984474E-011
  -83.939999999999998          8.8217176619220794E-012
  -83.924999999999997          2.0717934746256050E-012
  -83.909999999999997         -5.4178658087655762E-012
  -83.894999999999996         -1.3602797707679137E-011
  -83.879999999999995         -2.2418575676419472E-011
  -83.864999999999995         -3.1780578169104956E-011
  -83.849999999999994         -4.1584284626861034E-011
  -83.834999999999994         -5.1706153247899067E-011
  -83.819999999999993         -6.2005088563577004E-011
  -83.805000000000007         -7.2324438105120237E-011
  -83.790000000000006         -8.2494601427729464E-011
  -83.775000000000006         -9.2336083223898413E-011
  -83.760000000000005         -1.0166303909819874E-010
  -83.745000000000005         -1.1028716828676011E-010
  -83.730000000000004         -1.1802192556586988E-010
  -83.715000000000003         -1.2468689969402647E-010
  -83.700000000000003         -1.3011228205961345E-010
  -83.685000000000002         -1.3414333532857370E-010
  -83.670000000000002         -1.3664464004747856E-010
  -83.655000000000001         -1.3750418859093116E-010
  -83.640000000000001         -1.3663693787524522E-010
  -83.625000000000000         -1.3398802900521645E-010
  -83.609999999999999         -1.2953534078707918E-010
  -83.594999999999999         -1.2329129384092141E-010
  -83.579999999999998         -1.1530407878490578E-010
  -83.564999999999998         -1.0565787827987450E-010
  -83.549999999999997         -9.4472381306776043E-011
  -83.534999999999997         -8.1901395387884435E-011
  -83.519999999999996         -6.8130619201856035E-011
  -83.504999999999995         -5.3374572123177089E-011
  -83.489999999999995         -3.7872809055539136E-011
  -83.474999999999994         -2.1885422293865808E-011
  -83.459999999999994         -5.6879444730595363E-012
  -83.444999999999993          1.0434223797484155E-011
  -83.430000000000007          2.6191734545100154E-011
  -83.415000000000006          4.1297437691767414E-011
  -83.400000000000006          5.5472595267280767E-011
  -83.385000000000005          6.8453027968207181E-011
  -83.370000000000005          7.9994996737831059E-011
  -83.355000000000004          8.9880762554894744E-011
  -83.340000000000003          9.7923585906656285E-011
  -83.325000000000003          1.0397208094481414E-010
  -83.310000000000002          1.0791387228259453E-010
  -83.295000000000002          1.0967831504116177E-010
  -83.280000000000001          1.0923836835097234E-010
  -83.265000000000001          1.0661144189683114E-010
  -83.250000000000000          1.0185928489558904E-010
  -83.234999999999999          9.5086855056436548E-011
  -83.219999999999999          8.6440195279369192E-011
  -83.204999999999998          7.6103429114127152E-011
  -83.189999999999998          6.4294895796290774E-011
  -83.174999999999997          5.1262487310577143E-011
  -83.159999999999997          3.7278423403730443E-011
  -83.144999999999996          2.2633452403941767E-011
  -83.129999999999995          7.6307181059998008E-012
  -83.114999999999995         -7.4205893166312542E-012
  -83.099999999999994         -2.2211650921311055E-011
  -83.084999999999994         -3.6440336859122624E-011
  -83.069999999999993         -4.9817264896612201E-011
  -83.055000000000007         -6.2071486839343493E-011
  -83.040000000000006         -7.2955641527983062E-011
  -83.025000000000006         -8.2250484201296103E-011
  -83.010000000000005         -8.9768650846089315E-011
  -82.995000000000005         -9.5357687024399951E-011
  -82.980000000000004         -9.8902150358348706E-011
  -82.965000000000003         -1.0032484565325461E-010
  -82.950000000000003         -9.9587234292375371E-011
  -82.935000000000002         -9.6688886064288937E-011
  -82.920000000000002         -9.1666181589733498E-011
  -82.905000000000001         -8.4590223714542390E-011
  -82.890000000000001         -7.5564117463233771E-011
  -82.875000000000000         -6.4719660186618455E-011
  -82.859999999999999         -5.2213566803516187E-011
  -82.844999999999999         -3.8223410547821857E-011
  -82.829999999999998         -2.2943322589008552E-011
  -82.814999999999998         -6.5796361414793836E-012
  -82.799999999999997          1.0653414782291204E-011
  -82.784999999999997          2.8537835289332847E-011
  -82.769999999999996          4.6855720692295932E-011
  -82.754999999999995          6.5392732895297456E-011
  -82.739999999999995          8.3941152639877004E-011
  -82.724999999999994          1.0230238878250475E-010
  -82.709999999999994          1.2028898710436664E-010
  -82.694999999999993          1.3772605278461469E-010
  -82.680000000000007          1.5445210388431718E-010
  -82.665000000000006          1.7031945298562334E-010
  -82.650000000000006          1.8519406841388530E-010
  -82.635000000000005          1.9895499137057016E-010
  -82.620000000000005          2.1149348938820367E-010
  -82.605000000000004          2.2271187671840664E-010
  -82.590000000000003          2.3252222369762876E-010
  -82.575000000000003          2.4084498284615563E-010
  -82.560000000000002          2.4760771211163046E-010
  -82.545000000000002          2.5274379811257575E-010
  -82.530000000000001          2.5619162347112479E-010
  -82.515000000000001          2.5789384516805569E-010
  -82.500000000000000          2.5779717249818646E-010
  -82.484999999999999          2.5585250584825303E-010
  -82.469999999999999          2.5201551956399726E-010
  -82.454999999999998          2.4624763339531341E-010
  -82.439999999999998          2.3851759456405830E-010
  -82.424999999999997          2.2880336514319310E-010
  -82.409999999999997          2.1709418984716677E-010
  -82.394999999999996          2.0339319117823607E-010
  -82.379999999999995          1.8771999232836123E-010
  -82.364999999999995          1.7011342334782853E-010
  -82.349999999999994          1.5063418568050935E-010
  -82.334999999999994          1.2936732241008997E-010
  -82.319999999999993          1.0642445258390865E-010
  -82.305000000000007          8.1945471241962053E-011
  -82.290000000000006          5.6099781070573229E-011
  -82.275000000000006          2.9086897820884694E-011
  -82.260000000000005          1.1362594892760924E-012
  -82.245000000000005         -2.7493736454164974E-011
  -82.230000000000004         -5.6517554525292724E-011
  -82.215000000000003         -8.5625229129249192E-011
  -82.200000000000003         -1.1448592074358999E-010
  -82.185000000000002         -1.4275236548400017E-010
  -82.170000000000002         -1.7006603070246484E-010
  -82.155000000000001         -1.9606305468045093E-010
  -82.140000000000001         -2.2038072755581339E-010
  -82.125000000000000         -2.4266441633891134E-010
  -82.109999999999999         -2.6257479524005589E-010
  -82.094999999999999         -2.7979524253041177E-010
  -82.079999999999998         -2.9403907086944514E-010
  -82.064999999999998         -3.0505667436564465E-010
  -82.049999999999997         -3.1264207889236673E-010
  -82.034999999999997         -3.1663896504774414E-010
  -82.019999999999996         -3.1694583069175053E-010
  -82.004999999999995         -3.1352029306042084E-010
  -81.989999999999995         -3.0638216963474463E-010
  -81.974999999999994         -2.9561544878653478E-010
  -81.960000000000008         -2.8136890040109108E-010
  -81.944999999999993         -2.6385524320993170E-010
  -81.930000000000007         -2.4334909087819767E-010
  -81.915000000000006         -2.2018334377982285E-010
  -81.900000000000006         -1.9474438728295240E-010
  -81.885000000000005         -1.6746595776773177E-010
  -81.870000000000005         -1.3882184290991972E-010
  -81.855000000000004         -1.0931765215271838E-010
  -81.840000000000003         -7.9481712877971233E-011