  -90.000000000000000          0.0000000000000000     
  -89.984999999999999          0.0000000000000000     
  -89.969999999999999         -2.5356327280900981E-012
  -89.954999999999998         -1.2814980847319912E-011
  -89.939999999999998         -3.8802561858064522E-011
  -89.924999999999997         -9.1249285905092847E-011
  -89.909999999999997         -1.8366125287272439E-010
  -89.894999999999996         -3.3219510475746006E-010
  -89.879999999999995         -5.5546445221210661E-010
  -89.864999999999995         -8.7424040229322486E-010
  -89.849999999999994         -1.3110312835351579E-009
  -89.834999999999994         -1.8895314202183044E-009
  -89.819999999999993         -2.6339350700510522E-009
  -89.805000000000007         -3.5681215759808538E-009
  -89.790000000000006         -4.7147299397920506E-009
  -89.775000000000006         -6.0941505175549082E-009
  -89.760000000000005         -7.7234760809119507E-009
  -89.745000000000005         -9.6154550988103438E-009
  -89.730000000000004         -1.1777520292355348E-008
  -89.715000000000003         -1.4210933763081357E-008
  -89.700000000000003         -1.6910123079583173E-008
  -89.685000000000002         -1.9862264721837164E-008
  -89.670000000000002         -2.3047157071687252E-008
  -89.655000000000001         -2.6437428246595118E-008
  -89.640000000000001         -2.9999089434795678E-008
  -89.625000000000000         -3.3692430179144139E-008
  -89.609999999999999         -3.7473260050546742E-008
  -89.594999999999999         -4.1294430985772124E-008
  -89.579999999999998         -4.5107583446224453E-008
  -89.564999999999998         -4.8865047119761584E-008
  -89.549999999999997         -5.2521819782214152E-008
  -89.534999999999997         -5.6037489315485800E-008
  -89.519999999999996         -5.9378045591529371E-008
  -89.504999999999995         -6.2517429455510864E-008
  -89.489999999999995         -6.5438804597306444E-008
  -89.474999999999994         -6.8135378228362242E-008
  -89.459999999999994         -7.0610816749194782E-008
  -89.444999999999993         -7.2879146273407969E-008
  -89.430000000000007         -7.4964184193504479E-008
  -89.415000000000006         -7.6898487577636843E-008
  -89.400000000000006         -7.8721882346144412E-008
  -89.385000000000005         -8.0479608755013032E-008
  -89.370000000000005         -8.2220211083949835E-008
  -89.355000000000004         -8.3993228372492013E-008
  -89.340000000000003         -8.5846878050688247E-008
  -89.325000000000003         -8.7825704042643338E-008
  -89.310000000000002         -8.9968466454592999E-008
  -89.295000000000002         -9.2306223109517305E-008
  -89.280000000000001         -9.4860808985686162E-008
  -89.265000000000001         -9.7643692242854740E-008
  -89.250000000000000         -1.0065531341751921E-007
  -89.234999999999999         -1.0388488647095073E-007
  -89.219999999999999         -1.0731066169000769E-007
  -89.204999999999998         -1.1090069307329031E-007
  -89.189999999999998         -1.1461394677780845E-007
  -89.174999999999997         -1.1840175062616254E-007
  -89.159999999999997         -1.2220954204167356E-007
  -89.144999999999996         -1.2597877230291488E-007
  -89.129999999999995         -1.2964881079824409E-007
  -89.114999999999995         -1.3315900559973670E-007
  -89.099999999999994         -1.3645052376887179E-007
  -89.084999999999994         -1.3946807086995250E-007
  -89.069999999999993         -1.4216146837497945E-007
  -89.055000000000007         -1.4448687579715624E-007
  -89.040000000000006         -1.4640784229413839E-007
  -89.025000000000006         -1.4789600299991434E-007
  -89.010000000000005         -1.4893157640472054E-007
  -88.995000000000005         -1.4950350646358856E-007
  -88.980000000000004         -1.4960946259634511E-007
  -88.965000000000003         -1.4925561231393658E-007
  -88.950000000000003         -1.4845619489278761E-007
  -88.935000000000002         -1.4723296715146716E-007
  -88.920000000000002         -1.4561460659479053E-007
  -88.905000000000001         -1.4363594402766466E-007
  -88.890000000000001         -1.4133713932551473E-007
  -88.875000000000000         -1.3876288562642003E-007
  -88.859999999999999         -1.3596140036042925E-007
  -88.844999999999999         -1.3298351575485867E-007
  -88.829999999999998         -1.2988159880933381E-007
  -88.814999999999998         -1.2670845705997635E-007
  -88.799999999999997         -1.2351614486760809E-007
  -88.784999999999997         -1.2035475549510011E-007
  -88.769999999999996         -1.1727113502502107E-007
  -88.754999999999995         -1.1430758206643077E-007
  -88.739999999999995         -1.1150054746167370E-007
  -88.724999999999994         -1.0887941925830091E-007
  -88.709999999999994         -1.0646537873526540E-007
  -88.694999999999993         -1.0427041274851945E-007
  -88.680000000000007         -1.0229659608285147E-007
  -88.665000000000006         -1.0053561538825306E-007
  -88.650000000000006         -9.8968619965944526E-008
  -88.635000000000005         -9.7566498880041763E-008
  -88.620000000000005         -9.6290513340591133E-008
  -88.605000000000004         -9.5093405150237231E-008
  -88.590000000000003         -9.3920874633113272E-008
  -88.575000000000003         -9.2713470678518206E-008
  -88.560000000000002         -9.1408779212542868E-008
  -88.545000000000002         -8.9943917203072488E-008
  -88.530000000000001         -8.8258168773336365E-008
  -88.515000000000001         -8.6295635526312253E-008
  -88.500000000000000         -8.4007858447421313E-008
  -88.484999999999999         -8.1356255066111771E-008
  -88.469999999999999         -7.8314236873211485E-008
  -88.454999999999998         -7.4868857780074904E-008
  -88.439999999999998         -7.1022022041233868E-008
  -88.424999999999997         -6.6791024266876775E-008
  -88.409999999999997         -6.2208457052292943E-008
  -88.394999999999996         -5.7321503987850519E-008
  -88.379999999999995         -5.2190522126238648E-008
  -88.364999999999995         -4.6887048910093654E-008
  -88.349999999999994         -4.1491290403428138E-008
  -88.334999999999994         -3.6089161881136533E-008
  -88.319999999999993         -3.0769079728543147E-008
  -88.305000000000007         -2.5618549059913676E-008
  -88.290000000000006         -2.0720801074958217E-008
  -88.275000000000006         -1.6151556536669887E-008
  -88.260000000000005         -1.1976101887967161E-008
  -88.245000000000005         -8.2467970230482024E-009
  -88.230000000000004         -5.0011230712243560E-009
  -88.215000000000003         -2.2603594551640072E-009
  -88.200000000000003         -2.8936159024439689E-011
  -88.185000000000002          1.7055147294442463E-009
  -88.170000000000002          2.9714248839241009E-009
  -88.155000000000001          3.8119187806273658E-009
  -88.140000000000001          4.2828833812791345E-009
  -88.125000000000000          4.4505723550969378E-009
  -88.109999999999999          4.3888697121019504E-009
  -88.094999999999999          4.1763357216950681E-009
  -88.079999999999998          3.8931720069967923E-009
  -88.064999999999998          3.6182357110448038E-009
  -88.049999999999997          3.4262210846236485E-009
  -88.034999999999997          3.3851226266534695E-009
  -88.019999999999996          3.5540557163926678E-009
  -88.004999999999995          3.9815053476388584E-009
  -87.989999999999995          4.7040416006893793E-009
  -87.974999999999994          5.7455107338455491E-009
  -87.959999999999994          7.1167036708175146E-009
  -87.944999999999993          8.8154648025806637E-009
  -87.930000000000007          1.0827198693164064E-008
  -87.915000000000006          1.3125715625506018E-008
  -87.900000000000006          1.5674350706262885E-008
  -87.885000000000005          1.8427304127044408E-008
  -87.870000000000005          2.1331096888843604E-008
  -87.855000000000004          2.4326139325125951E-008
  -87.840000000000003          2.7348313835773297E-008
  -87.825000000000003          3.0330564726455123E-008
  -87.810000000000002          3.3204436533651460E-008
  -87.795000000000002          3.5901560835327473E-008
  -87.780000000000001          3.8355100429043887E-008
  -87.765000000000001          4.0501092257727578E-008
  -87.750000000000000          4.2279747702878012E-008
  -87.734999999999999          4.3636699587068506E-008
  -87.719999999999999          4.4524153253178156E-008
  -87.704999999999998          4.4901991458345947E-008
  -87.689999999999998          4.4738794002796567E-008
  -87.674999999999997          4.4012754329969539E-008
  -87.659999999999997          4.2712446912673840E-008
  -87.644999999999996          4.0837445425268015E-008
  -87.629999999999995          3.8398692225882769E-008
  -87.614999999999995          3.5418640464968121E-008
  -87.599999999999994          3.1931058686041069E-008
  -87.584999999999994          2.7980505024061131E-008
  -87.569999999999993          2.3621421263442244E-008
  -87.555000000000007          1.8916818333991614E-008
  -87.540000000000006          1.3936596765518061E-008
  -87.525000000000006          8.7554798966493763E-009
  -87.510000000000005          3.4506379975596246E-009
  -87.495000000000005         -1.9009513962942037E-009
  -87.480000000000004         -7.2253003580158293E-009
  -87.465000000000003         -1.2454272280137957E-008
  -87.450000000000003         -1.7528382301179590E-008
  -87.435000000000002         -2.2399410326556790E-008
  -87.420000000000002         -2.7032696081619179E-008
  -87.405000000000001         -3.1408998069082372E-008
  -87.390000000000001         -3.5525804520375459E-008
  -87.375000000000000         -3.9398006634883131E-008
  -87.359999999999999         -4.3057863052808898E-008
  -87.344999999999999         -4.6554259114373053E-008
  -87.329999999999998         -4.9951200509212867E-008
  -87.314999999999998         -5.3325656779179553E-008
  -87.299999999999997         -5.6764754674532014E-008
  -87.284999999999997         -6.0362488341070275E-008
  -87.269999999999996         -6.4216024497909530E-008
  -87.254999999999995         -6.8421826426856569E-008
  -87.239999999999995         -7.3071731776508386E-008
  -87.224999999999994         -7.8249108526051714E-008
  -87.209999999999994         -8.4025373325857800E-008
  -87.194999999999993         -9.0456943269145995E-008
  -87.180000000000007         -9.7582784519545385E-008
  -87.165000000000006         -1.0542270700852896E-007
  -87.150000000000006         -1.1397641230814770E-007
  -87.135000000000005         -1.2322338704962021E-007
  -87.120000000000005         -1.3312360636064113E-007
  -87.105000000000004         -1.4361907574311772E-007
  -87.090000000000003         -1.5463599822851393E-007
  -87.075000000000003         -1.6608761654879345E-007
  -87.060000000000002         -1.7787745321129478E-007
  -87.045000000000002         -1.8990289163411944E-007
  -87.030000000000001         -2.0205892781177681E-007
  -87.015000000000001         -2.1424182250484591E-007
  -87.000000000000000         -2.2635266816450894E-007
  -86.984999999999999         -2.3830051532058860E-007
  -86.969999999999999         -2.5000520054163644E-007
  -86.954999999999998         -2.6139952069570427E-007
  -86.939999999999998         -2.7243081035521755E-007
  -86.924999999999997         -2.8306206445449789E-007
  -86.909999999999997         -2.9327222250685736E-007
  -86.894999999999996         -3.0305591280921362E-007
  -86.879999999999995         -3.1242285558619187E-007
  -86.864999999999995         -3.2139649874807219E-007
  -86.849999999999994         -3.3001262522702746E-007
  -86.834999999999994         -3.3831736345746322E-007
  -86.819999999999993         -3.4636533996490471E-007
  -86.805000000000007         -3.5421751931608014E-007
  -86.790000000000006         -3.6193924302097003E-007
  -86.775000000000006         -3.6959832527827530E-007
  -86.760000000000005         -3.7726312029917608E-007
  -86.745000000000005         -3.8500098753502243E-007
  -86.730000000000004         -3.9287681374844396E-007
  -86.715000000000003         -4.0095181930155377E-007
  -86.700000000000003         -4.0928230760073347E-007
  -86.685000000000002         -4.1791898297560692E-007
  -86.670000000000002         -4.2690589907579124E-007
  -86.655000000000001         -4.3627991885841766E-007
  -86.640000000000001         -4.4607000404539576E-007
  -86.625000000000000         -4.5629670353264373E-007
  -86.609999999999999         -4.6697164179931860E-007
  -86.594999999999999         -4.7809697889533709E-007
  -86.579999999999998         -4.8966523991111899E-007
  -86.564999999999998         -5.0165880338681745E-007
  -86.549999999999997         -5.1405021395112271E-007
  -86.534999999999997         -5.2680184126074892E-007
  -86.519999999999996         -5.3986667580829817E-007
  -86.504999999999995         -5.5318878366961144E-007
  -86.489999999999995         -5.6670427284188918E-007
  -86.474999999999994         -5.8034282801600057E-007
  -86.459999999999994         -5.9402913166195503E-007
  -86.444999999999993         -6.0768502407881897E-007
  -86.430000000000007         -6.2123154975779471E-007
  -86.415000000000006         -6.3459162902290700E-007
  -86.400000000000006         -6.4769255914143287E-007
  -86.385000000000005         -6.6046840174749377E-007
  -86.370000000000005         -6.7286271132616093E-007
  -86.355000000000004         -6.8483052473311545E-007
  -86.340000000000003         -6.9634040755772730E-007
  -86.325000000000003         -7.0737587520852685E-007
  -86.310000000000002         -7.1793624556448776E-007
  -86.295000000000002         -7.2803680950528360E-007
  -86.280000000000001         -7.3770854669419350E-007
  -86.265000000000001         -7.4699693186630611E-007
  -86.250000000000000         -7.5596028636937262E-007
  -86.234999999999999         -7.6466756127047120E-007
  -86.219999999999999         -7.7319532465480734E-007
  -86.204999999999998         -7.8162463523767656E-007
  -86.189999999999998         -7.9003763175933273E-007
  -86.174999999999997         -7.9851406553643756E-007
  -86.159999999999997         -8.0712794670034782E-007
  -86.144999999999996         -8.1594436096565914E-007
  -86.129999999999995         -8.2501668430268182E-007
  -86.114999999999995         -8.3438453657436185E-007
  -86.099999999999994         -8.4407207623371505E-007
  -86.084999999999994         -8.5408726135938196E-007
  -86.069999999999993         -8.6442196334246546E-007
  -86.055000000000007         -8.7505219426020631E-007
  -86.040000000000006         -8.8593998270880547E-007
  -86.025000000000006         -8.9703496541915229E-007
  -86.010000000000005         -9.0827705889751087E-007
  -85.995000000000005         -9.1959941528330091E-007
  -85.980000000000004         -9.3093120767662185E-007
  -85.965000000000003         -9.4220092705654679E-007
  -85.950000000000003         -9.5333939498232212E-007
  -85.935000000000002         -9.6428243523405399E-007
  -85.920000000000002         -9.7497331807971932E-007
  -85.905000000000001         -9.8536452242115047E-007
  -85.890000000000001         -9.9541910003608791E-007
  -85.875000000000000         -1.0051113576992066E-006
  -85.859999999999999         -1.0144271982426289E-006
  -85.844999999999999         -1.0233634384348989E-006
  -85.829999999999998         -1.0319270131731173E-006
  -85.814999999999998         -1.0401334975540522E-006
  -85.799999999999997         -1.0480056289452477E-006
  -85.784999999999997         -1.0555714879956213E-006
  -85.769999999999996         -1.0628627933328971E-006
  -85.754999999999995         -1.0699128552005277E-006
  -85.739999999999995         -1.0767550975288032E-006
  -85.724999999999994         -1.0834215800059610E-006
  -85.709999999999994         -1.0899424296439975E-006
  -85.694999999999993         -1.0963444765366148E-006
  -85.680000000000007         -1.1026514812328969E-006
  -85.665000000000006         -1.1088837936767959E-006
  -85.650000000000006         -1.1150589216413209E-006
  -85.635000000000005         -1.1211919854758889E-006
  -85.620000000000005         -1.1272961728536757E-006
  -85.605000000000004         -1.1333837619531550E-006
  -85.590000000000003         -1.1394669172659633E-006
  -85.575000000000003         -1.1455576895968989E-006
  -85.560000000000002         -1.1516689255586243E-006
  -85.545000000000002         -1.1578144949453417E-006
  -85.530000000000001         -1.1640090633591171E-006
  -85.515000000000001         -1.1702677511493675E-006
  -85.500000000000000         -1.1766057923523476E-006
  -85.484999999999999         -1.1830375115096103E-006
  -85.469999999999999         -1.1895758689206559E-006
  -85.454999999999998         -1.1962310964008793E-006
  -85.439999999999998         -1.2030102425342193E-006
  -85.424999999999997         -1.2099159221179434E-006
  -85.409999999999997         -1.2169462024758104E-006
  -85.394999999999996         -1.2240940350238816E-006
  -85.379999999999995         -1.2313471415836830E-006
  -85.364999999999995         -1.2386882417558809E-006
  -85.349999999999994         -1.2460960761018214E-006
  -85.334999999999994         -1.2535457472040434E-006
  -85.319999999999993         -1.2610099702214939E-006
  -85.305000000000007         -1.2684607781920931E-006
  -85.290000000000006         -1.2758706589011126E-006
  -85.275000000000006         -1.2832139191232272E-006
  -85.260000000000005         -1.2904683899250813E-006
  -85.245000000000005         -1.2976161087863147E-006
  -85.230000000000004         -1.3046446838416159E-006
  -85.215000000000003         -1.3115477486280724E-006
  -85.200000000000003         -1.3183248483983334E-006
  -85.185000000000002         -1.3249818948679604E-006
  -85.170000000000002         -1.3315298019733746E-006
  -85.155000000000001         -1.3379842584981816E-006
  -85.140000000000001         -1.3443641364574432E-006
  -85.125000000000000         -1.3506902405424626E-006
  -85.109999999999999         -1.3569836028182181E-006
  -85.094999999999999         -1.3632642321681487E-006
  -85.079999999999998         -1.3695495226784260E-006
  -85.064999999999998         -1.3758533441432519E-006
  -85.049999999999997         -1.3821849051964818E-006
  -85.034999999999997         -1.3885485259379493E-006
  -85.019999999999996         -1.3949436379334657E-006
  -85.004999999999995         -1.4013650115884957E-006
  -84.989999999999995         -1.4078036656428594E-006
  -84.974999999999994         -1.4142482314127847E-006
  -84.959999999999994         -1.4206864307197975E-006
  -84.944999999999993         -1.4271066675064503E-006
  -84.930000000000007         -1.4335000741994008E-006
  -84.915000000000006         -1.4398618759514648E-006
  -84.900000000000006         -1.4461934370046947E-006
  -84.885000000000005         -1.4525031701850821E-006
  -84.870000000000005         -1.4588073327104212E-006
  -84.855000000000004         -1.4651305946244975E-006
  -84.840000000000003         -1.4715055840497371E-006
  -84.825000000000003         -1.4779723187530180E-006
  -84.810000000000002         -1.4845766145299422E-006
  -84.795000000000002         -1.4913683799022692E-006
  -84.780000000000001         -1.4983991150074871E-006
  -84.765000000000001         -1.5057195241752197E-006
  -84.750000000000000         -1.5133769011299592E-006
  -84.734999999999999         -1.5214119457596098E-006
  -84.719999999999999         -1.5298567177524092E-006
  -84.704999999999998         -1.5387319081128226E-006
  -84.689999999999998         -1.5480455886063282E-006
  -84.674999999999997         -1.5577916201436892E-006
  -84.659999999999997         -1.5679493117204402E-006
  -84.644999999999996         -1.5784835341037251E-006
  -84.629999999999995         -1.5893455156401615E-006
  -84.614999999999995         -1.6004748886189191E-006
  -84.599999999999994         -1.6118013945742860E-006
  -84.584999999999994         -1.6232481812039623E-006
  -84.569999999999993         -1.6347345308531658E-006
  -84.555000000000007         -1.6461794984934386E-006
  -84.540000000000006         -1.6575055497014546E-006
  -84.525000000000006         -1.6686414028299623E-006
  -84.510000000000005         -1.6795254396129167E-006
  -84.495000000000005         -1.6901084336495842E-006
  -84.480000000000004         -1.7003553693939466E-006
  -84.465000000000003         -1.7102471474572667E-006
  -84.450000000000003         -1.7197809256686014E-006
  -84.435000000000002         -1.7289710285695037E-006
  -84.420000000000002         -1.7378472421114566E-006
  -84.405000000000001         -1.7464541315348470E-006
  -84.390000000000001         -1.7548491086927243E-006
  -84.375000000000000         -1.7630999309403705E-006
  -84.359999999999999         -1.7712825410853839E-006
  -84.344999999999999         -1.7794776567825465E-006
  -84.329999999999998         -1.7877681557365577E-006
  -84.314999999999998         -1.7962365745916031E-006
  -84.299999999999997         -1.8049621530735749E-006
  -84.284999999999997         -1.8140189013138297E-006
  -84.269999999999996         -1.8234733261124347E-006
  -84.254999999999995         -1.8333830666961148E-006
  -84.239999999999995         -1.8437957578498754E-006
  -84.224999999999994         -1.8547485751696513E-006
  -84.209999999999994         -1.8662676666281186E-006
  -84.194999999999993         -1.8783679252010188E-006
  -84.180000000000007         -1.8910534436145099E-006
  -84.165000000000006         -1.9043180827793549E-006
  -84.150000000000006         -1.9181456991645973E-006
  -84.135000000000005         -1.9325111679791007E-006
  -84.120000000000005         -1.9473804968583863E-006
  -84.105000000000004         -1.9627116216724971E-006
  -84.090000000000003         -1.9784556570812128E-006
  -84.075000000000003         -1.9945562144130236E-006
  -84.060000000000002         -2.0109514480282087E-006
  -84.045000000000002         -2.0275736005714862E-006
  -84.030000000000001         -2.0443503672140650E-006
  -84.015000000000001         -2.0612053504009964E-006
  -84.000000000000000         -2.0780601062142523E-006
  -83.984999999999999         -2.0948343717464013E-006
  -83.969999999999999         -2.1114481114636874E-006
  -83.954999999999998         -2.1278237909427844E-006
  -83.939999999999998         -2.1438879684865242E-006
  -83.924999999999997         -2.1595735688606510E-006
  -83.909999999999997         -2.1748226117779268E-006
  -83.894999999999996         -2.1895878035138594E-006
  -83.879999999999995         -2.2038359475118341E-006
  -83.864999999999995         -2.2175493086251663E-006
  -83.849999999999994         -2.2307276594801806E-006
  -83.834999999999994         -2.2433889625972370E-006
  -83.819999999999993         -2.2555709620064590E-006
  -83.805000000000007         -2.2673300463793566E-006
  -83.790000000000006         -2.2787412490288261E-006
  -83.775000000000006         -2.2898964289197465E-006
  -83.760000000000005         -2.3009019969322253E-006
  -83.745000000000005         -2.3118752778827911E-006
  -83.730000000000004         -2.3229417820402887E-006
  -83.715000000000003         -2.3342306576523697E-006
  -83.700000000000003         -2.3458696887246333E-006
  -83.685000000000002         -2.3579805201734416E-006
  -83.670000000000002         -2.3706754745944636E-006
  -83.655000000000001         -2.3840511857997626E-006
  -83.640000000000001         -2.3981863250810420E-006
  -83.625000000000000         -2.4131370537361363E-006
  -83.609999999999999         -2.4289354314532829E-006
  -83.594999999999999         -2.4455878246953944E-006
  -83.579999999999998         -2.4630739972053561E-006
  -83.564999999999998         -2.4813482468744041E-006
  -83.549999999999997         -2.5003403152368264E-006
  -83.534999999999997         -2.5199585707014194E-006
  -83.519999999999996         -2.5400931917829439E-006
  -83.504999999999995         -2.5606202598282835E-006
  -83.489999999999995         -2.5814060791162774E-006
  -83.474999999999994         -2.6023130885732826E-006
  -83.459999999999994         -2.6232032723783050E-006
  -83.444999999999993         -2.6439447537995875E-006
  -83.430000000000007         -2.6644149784260662E-006
  -83.415000000000006         -2.6845054890145548E-006
  -83.400000000000006         -2.7041248813475249E-006
  -83.385000000000005         -2.7232017600908875E-006
  -83.370000000000005         -2.7416861030360451E-006
  -83.355000000000004         -2.7595497158472426E-006
  -83.340000000000003         -2.7767873689299449E-006
  -83.325000000000003         -2.7934140689467313E-006
  -83.310000000000002         -2.8094650588172954E-006
  -83.295000000000002         -2.8249926344869891E-006
  -83.280000000000001         -2.8400640985637438E-006
  -83.265000000000001         -2.8547578949655872E-006
  -83.250000000000000         -2.8691613351838896E-006
  -83.234999999999999         -2.8833669603045564E-006
  -83.219999999999999         -2.8974693577765720E-006
  -83.204999999999998         -2.9115624329278944E-006
  -83.189999999999998         -2.9257369078550255E-006
  -83.174999999999997         -2.9400782750599319E-006
  -83.159999999999997         -2.9546647510869661E-006
  -83.144999999999996         -2.9695656849071383E-006
  -83.129999999999995         -2.9848408757970901E-006
  -83.114999999999995         -3.0005396638443926E-006
  -83.099999999999994         -3.0167004752001958E-006
  -83.084999999999994         -3.0333505947055528E-006
  -83.069999999999993         -3.0505066206387710E-006
  -83.055000000000007         -3.0681733278470347E-006
  -83.040000000000006         -3.0863448046147823E-006
  -83.025000000000006         -3.1050046800373821E-006
  -83.010000000000005         -3.1241256692737807E-006
  -82.995000000000005         -3.1436704830412054E-006
  -82.980000000000004         -3.1635922823625151E-006
  -82.965000000000003         -3.1838344511925243E-006
  -82.950000000000003         -3.2043328701547580E-006
  -82.935000000000002         -3.2250154617941007E-006
  -82.920000000000002         -3.2458042369398754E-006
  -82.905000000000001         -3.2666164315742208E-006
  -82.890000000000001         -3.2873665531951701E-006
  -82.875000000000000         -3.3079684271797305E-006
  -82.859999999999999         -3.3283379252679879E-006
  -82.844999999999999         -3.3483945571788354E-006
  -82.829999999999998         -3.3680655633361312E-006
  -82.814999999999998         -3.3872875064844266E-006
  -82.799999999999997         -3.4060092275467468E-006
  -82.784999999999997         -3.4241945741086965E-006
  -82.769999999999996         -3.4418239920341875E-006
  -82.754999999999995         -3.4588958897074917E-006
  -82.739999999999995         -3.4754282296489691E-006
  -82.724999999999994         -3.4914578463940416E-006
  -82.709999999999994         -3.5070404464931926E-006
  -82.694999999999993         -3.5222496990172658E-006
  -82.680000000000007         -3.5371742796996841E-006
  -82.665000000000006         -3.5519155971996952E-006
  -82.650000000000006         -3.5665846098709153E-006
  -82.635000000000005         -3.5812972782878205E-006
  -82.620000000000005         -3.5961713820142904E-006
  -82.605000000000004         -3.6113215173827484E-006
  -82.590000000000003         -3.6268550047680037E-006
  -82.575000000000003         -3.6428682506084442E-006
  -82.560000000000002         -3.6594424273062032E-006
  -82.545000000000002         -3.6766414268640801E-006
  -82.530000000000001         -3.6945091324014356E-006
  -82.515000000000001         -3.7130680539121386E-006
  -82.500000000000000         -3.7323191008908907E-006
  -82.484999999999999         -3.7522413549595512E-006
  -82.469999999999999         -3.7727945709775668E-006
  -82.454999999999998         -3.7939203139103483E-006
  -82.439999999999998         -3.8155453694344033E-006
  -82.424999999999997         -3.8375842450477649E-006
  -82.409999999999997         -3.8599446270382032E-006
  -82.394999999999996         -3.8825301089673303E-006
  -82.379999999999995         -3.9052438296494074E-006
  -82.364999999999995         -3.9279925658775028E-006
  -82.349999999999994         -3.9506903704022989E-006
  -82.334999999999994         -3.9732617551635485E-006
  -82.319999999999993         -3.9956430555321276E-006
  -82.305000000000007         -4.0177842492994387E-006
  -82.290000000000006         -4.0396498661721125E-006
  -82.275000000000006         -4.0612198972667102E-006
  -82.260000000000005         -4.0824870666256174E-006
  -82.245000000000005         -4.1034577407117467E-006
  -82.230000000000004         -4.1241501094191335E-006
  -82.215000000000003         -4.1445914575888310E-006
  -82.200000000000003         -4.1648154365248047E-006
  -82.185000000000002         -4.1848620639939327E-006
  -82.170000000000002         -4.2047731767524965E-006
  -82.155000000000001         -4.2245924305461813E-006
  -82.140000000000001         -4.2443616621312685E-006
  -82.125000000000000         -4.2641213440219872E-006
  -82.109999999999999         -4.2839083107537590E-006
  -82.094999999999999         -4.3037566683779005E-006
  -82.079999999999998         -4.3236964302195702E-006
  -82.064999999999998         -4.3437539716251194E-006
  -82.049999999999997         -4.3639515752147418E-006
  -82.034999999999997         -4.3843101593665779E-006
  -82.019999999999996         -4.4048479139746632E-006
  -82.004999999999995         -4.4255812099436298E-006
  -81.989999999999995         -4.4465255086834077E-006
  -81.974999999999994         -4.4676967263512779E-006
  -81.960000000000008         -4.4891089601151180E-006
  -81.944999999999993         -4.5107767618901562E-006
  -81.930000000000007         -4.5327128646022175E-006
  -81.915000000000006         -4.5549295464297757E-006
  -81.900000000000006         -4.5774363570671994E-006
  -81.885000000000005         -4.6002410272194538E-006
  -81.870000000000005         -4.6233467401179951E-006
  -81.855000000000004         -4.6467525862681214E-006
  -81.840000000000003         -4.6704535634489730E-006