  -90.000000000000000          0.0000000000000000     
  -89.984999999999999          0.0000000000000000     
  -89.969999999999999          0.0000000000000000     
  -89.954999999999998          0.0000000000000000     
  -89.939999999999998          0.0000000000000000     
  -89.924999999999997          0.0000000000000000     
  -89.909999999999997          0.0000000000000000     
  -89.894999999999996          0.0000000000000000     
  -89.879999999999995          0.0000000000000000     
  -89.864999999999995          0.0000000000000000     
  -89.849999999999994          0.0000000000000000     
  -89.834999999999994          0.0000000000000000     
  -89.819999999999993          0.0000000000000000     
  -89.805000000000007          0.0000000000000000     
  -89.790000000000006          0.0000000000000000     
  -89.775000000000006          0.0000000000000000     
  -89.760000000000005          0.0000000000000000     
  -89.745000000000005          0.0000000000000000     
  -89.730000000000004          0.0000000000000000     
  -89.715000000000003          0.0000000000000000     
  -89.700000000000003          0.0000000000000000     
  -89.685000000000002          0.0000000000000000     
  -89.670000000000002          0.0000000000000000     
  -89.655000000000001          0.0000000000000000     
  -89.640000000000001          0.0000000000000000     
  -89.625000000000000          0.0000000000000000     
  -89.609999999999999          0.0000000000000000     
  -89.594999999999999          0.0000000000000000     
  -89.579999999999998          0.0000000000000000     
  -89.564999999999998          0.0000000000000000     
  -89.549999999999997          0.0000000000000000     
  -89.534999999999997          0.0000000000000000     
  -89.519999999999996          0.0000000000000000     
  -89.504999999999995          0.0000000000000000     
  -89.489999999999995          0.0000000000000000     
  -89.474999999999994          0.0000000000000000     
  -89.459999999999994          0.0000000000000000     
  -89.444999999999993          0.0000000000000000     
  -89.430000000000007          0.0000000000000000     
  -89.415000000000006          0.0000000000000000     
  -89.400000000000006          0.0000000000000000     
  -89.385000000000005          0.0000000000000000     
  -89.370000000000005          0.0000000000000000     
  -89.355000000000004          0.0000000000000000     
  -89.340000000000003          0.0000000000000000     
  -89.325000000000003          0.0000000000000000     
  -89.310000000000002          0.0000000000000000     
  -89.295000000000002          0.0000000000000000     
  -89.280000000000001          0.0000000000000000     
  -89.265000000000001          0.0000000000000000     
  -89.250000000000000          0.0000000000000000     
  -89.234999999999999          0.0000000000000000     
  -89.219999999999999          0.0000000000000000     
  -89.204999999999998          0.0000000000000000     
  -89.189999999999998          0.0000000000000000     
  -89.174999999999997          0.0000000000000000     
  -89.159999999999997          0.0000000000000000     
  -89.144999999999996          0.0000000000000000     
  -89.129999999999995          0.0000000000000000     
  -89.114999999999995          0.0000000000000000     
  -89.099999999999994          0.0000000000000000     
  -89.084999999999994          0.0000000000000000     
  -89.069999999999993          0.0000000000000000     
  -89.055000000000007          0.0000000000000000     
  -89.040000000000006          0.0000000000000000     
  -89.025000000000006          0.0000000000000000     
  -89.010000000000005          0.0000000000000000     
  -88.995000000000005          0.0000000000000000     
  -88.980000000000004          0.0000000000000000     
  -88.965000000000003          0.0000000000000000     
  -88.950000000000003          0.0000000000000000     
  -88.935000000000002          0.0000000000000000     
  -88.920000000000002          0.0000000000000000     
  -88.905000000000001          0.0000000000000000     
  -88.890000000000001          0.0000000000000000     
  -88.875000000000000          0.0000000000000000     
  -88.859999999999999          0.0000000000000000     
  -88.844999999999999          0.0000000000000000     
  -88.829999999999998          0.0000000000000000     
  -88.814999999999998          0.0000000000000000     
  -88.799999999999997          0.0000000000000000     
  -88.784999999999997          0.0000000000000000     
  -88.769999999999996          0.0000000000000000     
  -88.754999999999995          0.0000000000000000     
  -88.739999999999995          0.0000000000000000     
  -88.724999999999994          0.0000000000000000     
  -88.709999999999994          0.0000000000000000     
  -88.694999999999993          0.0000000000000000     
  -88.680000000000007          0.0000000000000000     
  -88.665000000000006          0.0000000000000000     
  -88.650000000000006          0.0000000000000000     
  -88.635000000000005          0.0000000000000000     
  -88.620000000000005          0.0000000000000000     
  -88.605000000000004          0.0000000000000000     
  -88.590000000000003          0.0000000000000000     
  -88.575000000000003          0.0000000000000000     
  -88.560000000000002          0.0000000000000000     
  -88.545000000000002          1.2869471847017476E-038
  -88.530000000000001          3.3237572036329912E-038
  -88.515000000000001          6.2735762305027479E-038
  -88.500000000000000          1.0316620496393053E-037
  -88.484999999999999          1.5648882891276391E-037
  -88.469999999999999          2.1899467737615269E-037
  -88.454999999999998          2.8618850819480771E-037
  -88.439999999999998          3.5847837948154037E-037
  -88.424999999999997          4.8356079153402161E-037
  -88.409999999999997          6.7135864145860376E-037
  -88.394999999999996          9.3677560162323528E-037
  -88.379999999999995          1.3574737404736879E-036
  -88.364999999999995          1.9940591044881327E-036
  -88.349999999999994          2.9119301360511811E-036
  -88.334999999999994          4.1280299461053719E-036
  -88.319999999999993          5.5897052269003721E-036
  -88.305000000000007          7.3917092246254267E-036
  -88.290000000000006          9.5788512042223119E-036
  -88.275000000000006          1.2195913166969882E-035
  -88.260000000000005          1.5292112481625496E-035
  -88.245000000000005          1.8861220118676314E-035
  -88.230000000000004          2.2803561561409483E-035
  -88.215000000000003          2.7043610723812819E-035
  -88.200000000000003          3.1513115178155779E-035
  -88.185000000000002          3.6082134872022943E-035
  -88.170000000000002          4.0645839586549962E-035
  -88.155000000000001          4.4985514478058817E-035
  -88.140000000000001          4.8913708949594773E-035
  -88.125000000000000          5.2088175065851035E-035
  -88.109999999999999          5.3985324224919837E-035
  -88.094999999999999          5.4020026563030538E-035
  -88.079999999999998          5.1285222884630659E-035
  -88.064999999999998          4.4718603218053381E-035
  -88.049999999999997          3.2961257637634123E-035
  -88.034999999999997          1.4385156601006195E-035
  -88.019999999999996         -1.3022424022814038E-035
  -88.004999999999995         -5.1580393648719462E-035
  -87.989999999999995         -1.0420236253598882E-034
  -87.974999999999994         -1.7411976781187776E-034
  -87.959999999999994         -2.6508421576824745E-034
  -87.944999999999993         -3.8135546145607524E-034
  -87.930000000000007         -5.2773433171082734E-034
  -87.915000000000006         -7.0951759948553418E-034
  -87.900000000000006         -9.3244592460390581E-034
  -87.885000000000005         -1.2026144748636962E-033
  -87.870000000000005         -1.5263347824916075E-033
  -87.855000000000004         -1.9099428538740681E-033
  -87.840000000000003         -2.3595338108910838E-033
  -87.825000000000003         -2.8806464359869353E-033
  -87.810000000000002         -3.4778370554680053E-033
  -87.795000000000002         -4.1541426691922385E-033
  -87.780000000000001         -4.9104634486929756E-033
  -87.765000000000001         -5.7448271348547275E-033
  -87.750000000000000         -6.6515149476607437E-033
  -87.734999999999999         -7.6200789463841221E-033
  -87.719999999999999         -8.6342212691926961E-033
  -87.704999999999998         -9.6705642721844875E-033
  -87.689999999999998         -1.0697304955697999E-032
  -87.674999999999997         -1.1672783799940090E-032
  -87.659999999999997         -1.2543988213740581E-032
  -87.644999999999996         -1.3245026595948100E-032
  -87.629999999999995         -1.3695628845448808E-032
  -87.614999999999995         -1.3799718870214121E-032
  -87.599999999999994         -1.3444137706562133E-032
  -87.584999999999994         -1.2497629655280027E-032
  -87.569999999999993         -1.0810120821966261E-032
  -87.555000000000007         -8.2124685897970446E-033
  -87.540000000000006         -4.5167885538926683E-033
  -87.525000000000006          4.8251696704328066E-034
  -87.510000000000005          7.0068705633341676E-033
  -87.495000000000005          1.5290618926513168E-032
  -87.480000000000004          2.5576973261215603E-032
  -87.465000000000003          3.8112612526329470E-032
  -87.450000000000003          5.3140831726380332E-032
  -87.435000000000002          7.0893088637780977E-032
  -87.420000000000002          9.1578803456602149E-032
  -87.405000000000001          1.1537339520481706E-031
  -87.390000000000001          1.4240444028432044E-031
  -87.375000000000000          1.7273603840206265E-031
  -87.359999999999999          2.0635133296905288E-031
  -87.344999999999999          2.4313344458198889E-031
  -87.329999999999998          2.8284493513694806E-031
  -87.314999999999998          3.2510616697838884E-031
  -87.299999999999997          3.6937288622188051E-031
  -87.284999999999997          4.1491362975268039E-031
  -87.269999999999996          4.6078748487261630E-031
  -87.254999999999995          5.0582288338199768E-031
  -87.239999999999995          5.4859851155135829E-031
  -87.224999999999994          5.8742673565110960E-031
  -87.209999999999994          6.2034142383006624E-031
  -87.194999999999993          6.4509028189227868E-031
  -87.180000000000007          6.5913363078290835E-031
  -87.165000000000006          6.5965051915885193E-031
  -87.150000000000006          6.4355344057801362E-031
  -87.135000000000005          6.0751273676202826E-031
  -87.120000000000005          5.4799205050588206E-031
  -87.105000000000004          4.6129558055081572E-031
  -87.090000000000003          3.4362812583576441E-031
  -87.075000000000003          1.9116847160967960E-031
  -87.060000000000002          1.5649944039672525E-034
  -87.045000000000002         -2.3300580843327035E-031
  -87.030000000000001         -5.1164007578579895E-031
  -87.015000000000001         -8.3866434391619855E-031
  -87.000000000000000         -1.2164543104173680E-030
  -86.984999999999999         -1.6466947408126799E-030
  -86.969999999999999         -2.1302233393963042E-030
  -86.954999999999998         -2.6668684839930208E-030
  -86.939999999999998         -3.2552865375400658E-030
  -86.924999999999997         -3.8927983133130452E-030
  -86.909999999999997         -4.5752346619880103E-030
  -86.894999999999996         -5.2967880772346109E-030
  -86.879999999999995         -6.0498816045860905E-030
  -86.864999999999995         -6.8250541131906469E-030
  -86.849999999999994         -7.6108734032690191E-030
  -86.834999999999994         -8.3938730115381867E-030
  -86.819999999999993         -9.1585258801379124E-030
  -86.805000000000007         -9.8872526321109709E-030
  -86.790000000000006         -1.0560468967335374E-029
  -86.775000000000006         -1.1156678197439670E-029
  -86.760000000000005         -1.1652604405802998E-029
  -86.745000000000005         -1.2023373755803769E-029
  -86.730000000000004         -1.2242736424153090E-029
  -86.715000000000003         -1.2283333673211281E-029
  -86.700000000000003         -1.2117000282174447E-029
  -86.685000000000002         -1.1715106098713056E-029
  -86.670000000000002         -1.1048926178633126E-029
  -86.655000000000001         -1.0090028981130642E-029
  -86.640000000000001         -8.8106908951194252E-030
  -86.625000000000000         -7.1843085086098583E-030
  -86.609999999999999         -5.1858214105169869E-030
  -86.594999999999999         -2.7921252123556250E-030
  -86.579999999999998          1.7529253878106149E-032
  -86.564999999999998          3.2611497152828713E-030
  -86.549999999999997          6.9536407819502605E-030
  -86.534999999999997          1.1106461078772542E-029
  -86.519999999999996          1.5727298903041380E-029
  -86.504999999999995          2.0819769134984426E-029
  -86.489999999999995          2.6383106668838615E-029
  -86.474999999999994          3.2411863229347208E-029
  -86.459999999999994          3.8895572590968676E-029
  -86.444999999999993          4.5818375924317204E-029
  -86.430000000000007          5.3158591471190748E-029
  -86.415000000000006          6.0888184913836318E-029
  -86.400000000000006          6.8972113355062683E-029
  -86.385000000000005          7.7367518835076150E-029
  -86.370000000000005          8.6022798468429293E-029
  -86.355000000000004          9.4876388700743559E-029
  -86.340000000000003          1.0385541113921712E-028
  -86.325000000000003          1.1287403551217214E-028
  -86.310000000000002          1.2183159586882794E-028
  -86.295000000000002          1.3061055029726613E-028
  -86.280000000000001          1.3907413369731090E-028
  -86.265000000000001          1.4706391425691211E-028
  -86.250000000000000          1.5439721752084463E-028
  -86.234999999999999          1.6086445416291051E-028
  -86.219999999999999          1.6622661627701130E-028
  -86.204999999999998          1.7021286996471754E-028
  -86.189999999999998          1.7251853310882718E-028
  -86.174999999999997          1.7280355870353434E-028
  -86.159999999999997          1.7069164411183005E-028
  -86.144999999999996          1.6577032736199950E-028
  -86.129999999999995          1.5759214270558861E-028
  -86.114999999999995          1.4567719654870469E-028
  -86.099999999999994          1.2951722394196180E-028
  -86.084999999999994          1.0858157100037048E-028
  -86.069999999999993          8.2325121308765172E-029
  -86.055000000000007          5.0198464230057409E-029
  -86.040000000000006          1.1660423982303764E-029
  -86.025000000000006         -3.3806970769874864E-029
  -86.010000000000005         -8.6680997063985783E-029
  -85.995000000000005         -1.4737827417208472E-028
  -85.980000000000004         -2.1623243635511583E-028
  -85.965000000000003         -2.9346971417770280E-028
  -85.950000000000003         -3.7918248005480328E-028
  -85.935000000000002         -4.7330156902728947E-028
  -85.920000000000002         -5.7556767870227394E-028
  -85.905000000000001         -6.8550226363682507E-028
  -85.890000000000001         -8.0237924824190886E-028
  -85.875000000000000         -9.2519796746667033E-028
  -85.859999999999999         -1.0526584185986481E-027
  -85.844999999999999         -1.1831398834413917E-027
  -85.829999999999998         -1.3146839801309509E-027
  -85.814999999999998         -1.4449835408904471E-027
  -85.799999999999997         -1.5713780860947037E-027
  -85.784999999999997         -1.6908570983511519E-027
  -85.769999999999996         -1.8000727336374633E-027
  -85.754999999999995         -1.8953619694959105E-027
  -85.739999999999995         -1.9727797310284109E-027
  -85.724999999999994         -2.0281436687677330E-027
  -85.709999999999994         -2.0570911662038509E-027
  -85.694999999999993         -2.0551469399249920E-027
  -85.680000000000007         -2.0178048916402734E-027
  -85.665000000000006         -1.9406195898520606E-027
  -85.650000000000006         -1.8193098848869752E-027
  -85.635000000000005         -1.6498711906116527E-027
  -85.620000000000005         -1.4286967217227420E-027
  -85.605000000000004         -1.1527045088267374E-027
  -85.590000000000003         -8.1946874686218595E-028
  -85.575000000000003         -4.2735239537635853E-028
  -85.560000000000002          2.4361090875819684E-029
  -85.545000000000002          5.3534092439860358E-028
  -85.530000000000001          1.1040895110950342E-027
  -85.515000000000001          1.7278341829114091E-027
  -85.500000000000000          2.4024333237988205E-027
  -85.484999999999999          3.1222999072850984E-027
  -85.469999999999999          3.8803467037678922E-027
  -85.454999999999998          4.6679549841530745E-027
  -85.439999999999998          5.4749685494719138E-027
  -85.424999999999997          6.2897193457493343E-027
  -85.409999999999997          7.0990810048563705E-027
  -85.394999999999996          7.8885528150557419E-027
  -85.379999999999995          8.6423825953323054E-027
  -85.364999999999995          9.3437115253248729E-027
  -85.349999999999994          9.9747594197868613E-027
  -85.334999999999994          1.0517035040136220E-026
  -85.319999999999993          1.0951577220884468E-026
  -85.305000000000007          1.1259222188712974E-026
  -85.290000000000006          1.1420890911220660E-026
  -85.275000000000006          1.1417900327203016E-026
  -85.260000000000005          1.1232289984370663E-026
  -85.245000000000005          1.0847161773391547E-026
  -85.230000000000004          1.0247028906396863E-026
  -85.215000000000003          9.4181764510666387E-027
  -85.200000000000003          8.3490172424834641E-027
  -85.185000000000002          7.0304593505658755E-027
  -85.170000000000002          5.4562646882240027E-027
  -85.155000000000001          3.6234099306311466E-027
  -85.140000000000001          1.5324443530074463E-027
  -85.125000000000000         -8.1215984272323639E-028
  -85.109999999999999         -3.4016575864624225E-027
  -85.094999999999999         -6.2226873540349366E-027
  -85.079999999999998         -9.2569345146346283E-027
  -85.064999999999998         -1.2480800263466932E-026
  -85.049999999999997         -1.5865075946995271E-026
  -85.034999999999997         -1.9374633373405999E-026
  -85.019999999999996         -2.2968128989768946E-026
  -85.004999999999995         -2.6597733481473219E-026
  -84.989999999999995         -3.0208892186542130E-026
  -84.974999999999994         -3.3740135584126658E-026
  -84.959999999999994         -3.7122943709037374E-026
  -84.944999999999993         -4.0281706092401589E-026
  -84.930000000000007         -4.3133774146957848E-026
  -84.915000000000006         -4.5589642974842676E-026
  -84.900000000000006         -4.7553318064651991E-026
  -84.885000000000005         -4.8922857633313443E-026
  -84.870000000000005         -4.9591164568479546E-026
  -84.855000000000004         -4.9447031052929517E-026
  -84.840000000000003         -4.8376515989665494E-026
  -84.825000000000003         -4.6264655227703158E-026
  -84.810000000000002         -4.2997563136827050E-026
  -84.795000000000002         -3.8464928612798489E-026
  -84.780000000000001         -3.2562973305750159E-026
  -84.765000000000001         -2.5197822767960758E-026
  -84.750000000000000         -1.6289353691511912E-026
  -84.734999999999999         -5.7754556060691102E-027
  -84.719999999999999          6.3833002817471101E-027
  -84.704999999999998          2.0198641729740100E-026
  -84.689999999999998          3.5649299152790037E-026
  -84.674999999999997          5.2675521344744283E-026
  -84.659999999999997          7.1173551526150899E-026
  -84.644999999999996          9.0990144221706970E-026
  -84.629999999999995          1.1191740993098347E-025
  -84.614999999999995          1.3368804806662692E-025
  -84.599999999999994          1.5597124857543772E-025
  -84.584999999999994          1.7836957347260422E-025
  -84.569999999999993          2.0041690457075394E-025
  -84.555000000000007          2.2157783950832305E-025
  -84.540000000000006          2.4124882573710763E-025
  -84.525000000000006          2.5876114340256148E-025
  -84.510000000000005          2.7338615619919656E-025
  -84.495000000000005          2.8434289183084408E-025
  -84.480000000000004          2.9080829720242234E-025
  -84.465000000000003          2.9193010671345319E-025
  -84.450000000000003          2.8684276738758617E-025
  -84.435000000000002          2.7468600175577448E-025
  -84.420000000000002          2.5462620570832910E-025
  -84.405000000000001          2.2588065666394777E-025
  -84.390000000000001          1.8774402669170140E-025
  -84.375000000000000          1.3961700337075161E-025
  -84.359999999999999          8.1036537675685303E-026
  -84.344999999999999          1.1707350649660907E-026
  -84.329999999999998         -6.8466261018118073E-026
  -84.314999999999998         -1.5934885514875464E-025
  -84.299999999999997         -2.6054337740268205E-025
  -84.284999999999997         -3.7136292714667911E-025
  -84.269999999999996         -4.9080539218613061E-025
  -84.254999999999995         -6.1753234673581266E-025
  -84.239999999999995         -7.4985321257203006E-025
  -84.224999999999994         -8.8571566944223719E-025
  -84.209999999999994         -1.0227030419632895E-024
  -84.194999999999993         -1.1580409063315246E-024
  -84.180000000000007         -1.2886120786799618E-024
  -84.165000000000006         -1.4109817600196556E-024
  -84.150000000000006         -1.5214338238413361E-024
  -84.135000000000005         -1.6160173589088171E-024
  -84.120000000000005         -1.6906050449659821E-024
  -84.105000000000004         -1.7409621780659917E-024
  -84.090000000000003         -1.7628268385607762E-024
  -84.075000000000003         -1.7519995254213915E-024
  -84.060000000000002         -1.7044428485349165E-024
  -84.045000000000002         -1.6163878277114315E-024
  -84.030000000000001         -1.4844476858695964E-024
  -84.015000000000001         -1.3057346004506234E-024
  -84.000000000000000         -1.0779793144530310E-024
  -83.984999999999999         -7.9964951487223409E-025
  -83.969999999999999         -4.7006545012696499E-025
  -83.954999999999998         -8.9509347532018156E-026
  -83.939999999999998          3.4067466021177131E-025
  -83.924999999999997          8.1799265098230540E-025
  -83.909999999999997          1.3387283133810396E-024
  -83.894999999999996          1.8978888974350235E-024
  -83.879999999999995          2.4891718975496070E-024
  -83.864999999999995          3.1049563257346762E-024
  -83.849999999999994          3.7363185874303710E-024
  -83.834999999999994          4.3730772493634565E-024
  -83.819999999999993          5.0038666008267345E-024
  -83.805000000000007          5.6162396000271755E-024
  -83.790000000000006          6.1968021776550317E-024
  -83.775000000000006          6.7313769255216712E-024
  -83.760000000000005          7.2051951841899989E-024
  -83.745000000000005          7.6031179240279182E-024
  -83.730000000000004          7.9098783199366870E-024
  -83.715000000000003          8.1103491751977870E-024
  -83.700000000000003          8.1898300668424249E-024
  -83.685000000000002          8.1343447462127998E-024
  -83.670000000000002          7.9309495835760454E-024
  -83.655000000000001          7.5680514790690338E-024
  -83.640000000000001          7.0357202516168428E-024
  -83.625000000000000          6.3259986612685081E-024
  -83.609999999999999          5.4332002041887441E-024
  -83.594999999999999          4.3541927081533707E-024
  -83.579999999999998          3.0886598399393942E-024
  -83.564999999999998          1.6393366789128291E-024
  -83.549999999999997          1.2214888656789342E-026
  -83.534999999999997         -1.7832867349985884E-024
  -83.519999999999996         -3.7341902407080847E-024
  -83.504999999999995         -5.8238662125595353E-024
  -83.489999999999995         -8.0319892548994683E-024
  -83.474999999999994         -1.0334535397720283E-023
  -83.459999999999994         -1.2703829428314563E-023
  -83.444999999999993         -1.5108644287749135E-023
  -83.430000000000007         -1.7514340304814838E-023
  -83.415000000000006         -1.9883070299861885E-023
  -83.400000000000006         -2.2174024920541382E-023
  -83.385000000000005         -2.4343731620088410E-023
  -83.370000000000005         -2.6346404911563940E-023
  -83.355000000000004         -2.8134358153247363E-023
  -83.340000000000003         -2.9658453199352463E-023
  -83.325000000000003         -3.0868625781390292E-023
  -83.310000000000002         -3.1714445599411881E-023
  -83.295000000000002         -3.2145753721619659E-023
  -83.280000000000001         -3.2113344160189559E-023
  -83.265000000000001         -3.1569727488627276E-023
  -83.250000000000000         -3.0469932324447971E-023
  -83.234999999999999         -2.8772388853390118E-023
  -83.219999999999999         -2.6439877040223578E-023
  -83.204999999999998         -2.3440539526151906E-023
  -83.189999999999998         -1.9748943435590778E-023
  -83.174999999999997         -1.5347213180427883E-023
  -83.159999999999997         -1.0226210595937144E-023
  -83.144999999999996         -4.3867509698641049E-024
  -83.129999999999995          2.1591529239265282E-024
  -83.114999999999995          9.3870385087638517E-024
  -83.099999999999994          1.7258757260132283E-023
  -83.084999999999994          2.5721279975830602E-023
  -83.069999999999993          3.4705575804625634E-023
  -83.055000000000007          4.4125609998472165E-023
  -83.040000000000006          5.3877470643490862E-023
  -83.025000000000006          6.3838732838078666E-023
  -83.010000000000005          7.3868039018907214E-023
  -82.995000000000005          8.3804991675839728E-023
  -82.980000000000004          9.3470412098307928E-023
  -82.965000000000003          1.0266700932935966E-022
  -82.950000000000003          1.1118050350358793E-022
  -82.935000000000002          1.1878128561047549E-022
  -82.920000000000002          1.2522661999404221E-022
  -82.905000000000001          1.3026351580654010E-022
  -82.890000000000001          1.3363211595490210E-022
  -82.875000000000000          1.3506988752987068E-022
  -82.859999999999999          1.3431632972788011E-022
  -82.844999999999999          1.3111845170118242E-022
  -82.829999999999998          1.2523678052250146E-022
  -82.814999999999998          1.1645200023841130E-022
  -82.799999999999997          1.0457201375215978E-022
  -82.784999999999997          8.9439490644809602E-023
  -82.769999999999996          7.0939610633884049E-023
  -82.754999999999995          4.9007961648750012E-023
  -82.739999999999995          2.3638448950053754E-023
  -82.724999999999994         -5.1090947291264283E-024
  -82.709999999999994         -3.7101677695362039E-023
  -82.694999999999993         -7.2126619104300968E-023
  -82.680000000000007         -1.0988588809481162E-022
  -82.665000000000006         -1.4999162700334580E-022
  -82.650000000000006         -1.9196306612893836E-022
  -82.635000000000005         -2.3522504383014904E-022
  -82.620000000000005         -2.7910845459805663E-022
  -82.605000000000004         -3.2285289962890048E-022
  -82.590000000000003         -3.6561135688063946E-022
  -82.575000000000003         -4.0645764054167167E-022
  -82.560000000000002         -4.4439627125848061E-022
  -82.545000000000002         -4.7837494644882491E-022
  -82.530000000000001         -5.0729991362305926E-022
  -82.515000000000001         -5.3005364086841135E-022
  -82.500000000000000         -5.4551536509784112E-022
  -82.484999999999999         -5.5258365978281725E-022
  -82.469999999999999         -5.5020117363130496E-022
  -82.454999999999998         -5.3738123728837726E-022
  -82.439999999999998         -5.1323553026588286E-022
  -82.424999999999997         -4.7700295956246453E-022
  -82.409999999999997         -4.2807823536098982E-022
  -82.394999999999996         -3.6604080013566729E-022
  -82.379999999999995         -2.9068236936396964E-022
  -82.364999999999995         -2.0203274305545249E-022
  -82.349999999999994         -1.0038344633536208E-022
  -82.334999999999994          1.3691966853386170E-023
  -82.319999999999993          1.3932148177755191E-022
  -82.305000000000007          2.7532275529011169E-022
  -82.290000000000006          4.2019664401539255E-022
  -82.275000000000006          5.7212645808665568E-022
  -82.260000000000005          7.2898381291629134E-022
  -82.245000000000005          8.8834149078401758E-022
  -82.230000000000004          1.0474928783695849E-021
  -82.215000000000003          1.2034795327082483E-021
  -82.200000000000003          1.3531258153399501E-021
  -82.185000000000002          1.4930807966006051E-021
  -82.170000000000002          1.6198671271329014E-021
  -82.155000000000001          1.7299369775908105E-021
  -82.140000000000001          1.8197327241313052E-021
  -82.125000000000000          1.8857549040481780E-021
  -82.109999999999999          1.9246313830962116E-021
  -82.094999999999999          1.9331925812671004E-021
  -82.079999999999998          1.9085465975911766E-021
  -82.064999999999998          1.8481553446810948E-021
  -82.049999999999997          1.7499098754819499E-021
  -82.034999999999997          1.6122032866406941E-021
  -82.019999999999996          1.4339990780367392E-021
  -82.004999999999995          1.2148942616543750E-021
  -81.989999999999995          9.5517499836469212E-022
  -81.974999999999994          6.5586395482344470E-022
  -81.960000000000008          3.1875751246222750E-022
  -81.944999999999993         -5.3548458848028524E-023
  -81.930000000000007         -4.5764514598545681E-022
  -81.915000000000006         -8.8931043916756968E-022
  -81.900000000000006         -1.3435231693128757E-021
  -81.885000000000005         -1.8144907497269988E-021
  -81.870000000000005         -2.2956931756085276E-021
  -81.855000000000004         -2.7799403773922687E-021
  -81.840000000000003         -3.2594442153509011E-021