  -90.000000000000000          0.0000000000000000     
  -89.984999999999999          0.0000000000000000     
  -89.969999999999999          0.0000000000000000     
  -89.954999999999998          0.0000000000000000     
  -89.939999999999998          0.0000000000000000     
  -89.924999999999997          0.0000000000000000     
  -89.909999999999997          0.0000000000000000     
  -89.894999999999996          0.0000000000000000     
  -89.879999999999995          0.0000000000000000     
  -89.864999999999995          0.0000000000000000     
  -89.849999999999994          0.0000000000000000     
  -89.834999999999994          0.0000000000000000     
  -89.819999999999993          0.0000000000000000     
  -89.805000000000007          0.0000000000000000     
  -89.790000000000006          0.0000000000000000     
  -89.775000000000006          0.0000000000000000     
  -89.760000000000005          0.0000000000000000     
  -89.745000000000005          0.0000000000000000     
  -89.730000000000004          0.0000000000000000     
  -89.715000000000003          0.0000000000000000     
  -89.700000000000003          0.0000000000000000     
  -89.685000000000002          0.0000000000000000     
  -89.670000000000002          0.0000000000000000     
  -89.655000000000001          0.0000000000000000     
  -89.640000000000001          0.0000000000000000     
  -89.625000000000000          0.0000000000000000     
  -89.609999999999999          0.0000000000000000     
  -89.594999999999999          0.0000000000000000     
  -89.579999999999998          0.0000000000000000     
  -89.564999999999998          0.0000000000000000     
  -89.549999999999997          0.0000000000000000     
  -89.534999999999997          0.0000000000000000     
  -89.519999999999996          0.0000000000000000     
  -89.504999999999995          0.0000000000000000     
  -89.489999999999995          0.0000000000000000     
  -89.474999999999994          0.0000000000000000     
  -89.459999999999994          0.0000000000000000     
  -89.444999999999993          0.0000000000000000     
  -89.430000000000007          0.0000000000000000     
  -89.415000000000006          0.0000000000000000     
  -89.400000000000006          0.0000000000000000     
  -89.385000000000005          0.0000000000000000     
  -89.370000000000005          0.0000000000000000     
  -89.355000000000004          0.0000000000000000     
  -89.340000000000003          0.0000000000000000     
  -89.325000000000003          0.0000000000000000     
  -89.310000000000002          0.0000000000000000     
  -89.295000000000002          0.0000000000000000     
  -89.280000000000001          0.0000000000000000     
  -89.265000000000001          0.0000000000000000     
  -89.250000000000000          0.0000000000000000     
  -89.234999999999999          0.0000000000000000     
  -89.219999999999999          0.0000000000000000     
  -89.204999999999998          0.0000000000000000     
  -89.189999999999998          0.0000000000000000     
  -89.174999999999997          0.0000000000000000     
  -89.159999999999997          0.0000000000000000     
  -89.144999999999996          0.0000000000000000     
  -89.129999999999995          0.0000000000000000     
  -89.114999999999995          0.0000000000000000     
  -89.099999999999994          0.0000000000000000     
  -89.084999999999994          0.0000000000000000     
  -89.069999999999993          0.0000000000000000     
  -89.055000000000007          0.0000000000000000     
  -89.040000000000006          0.0000000000000000     
  -89.025000000000006          0.0000000000000000     
  -89.010000000000005          0.0000000000000000     
  -88.995000000000005          0.0000000000000000     
  -88.980000000000004          0.0000000000000000     
  -88.965000000000003          0.0000000000000000     
  -88.950000000000003          0.0000000000000000     
  -88.935000000000002          0.0000000000000000     
  -88.920000000000002          0.0000000000000000     
  -88.905000000000001          0.0000000000000000     
  -88.890000000000001          0.0000000000000000     
  -88.875000000000000          0.0000000000000000     
  -88.859999999999999          0.0000000000000000     
  -88.844999999999999          0.0000000000000000     
  -88.829999999999998          0.0000000000000000     
  -88.814999999999998          0.0000000000000000     
  -88.799999999999997          0.0000000000000000     
  -88.784999999999997          0.0000000000000000     
  -88.769999999999996          0.0000000000000000     
  -88.754999999999995          0.0000000000000000     
  -88.739999999999995          0.0000000000000000     
  -88.724999999999994          0.0000000000000000     
  -88.709999999999994          0.0000000000000000     
  -88.694999999999993          0.0000000000000000     
  -88.680000000000007          0.0000000000000000     
  -88.665000000000006          0.0000000000000000     
  -88.650000000000006          0.0000000000000000     
  -88.635000000000005          0.0000000000000000     
  -88.620000000000005          0.0000000000000000     
  -88.605000000000004          0.0000000000000000     
  -88.590000000000003          0.0000000000000000     
  -88.575000000000003          0.0000000000000000     
  -88.560000000000002          0.0000000000000000     
  -88.545000000000002          0.0000000000000000     
  -88.530000000000001          0.0000000000000000     
  -88.515000000000001          0.0000000000000000     
  -88.500000000000000          0.0000000000000000     
  -88.484999999999999          0.0000000000000000     
  -88.469999999999999          0.0000000000000000     
  -88.454999999999998          0.0000000000000000     
  -88.439999999999998          0.0000000000000000     
  -88.424999999999997          0.0000000000000000     
  -88.409999999999997          0.0000000000000000     
  -88.394999999999996          0.0000000000000000     
  -88.379999999999995          0.0000000000000000     
  -88.364999999999995          0.0000000000000000     
  -88.349999999999994          0.0000000000000000     
  -88.334999999999994          0.0000000000000000     
  -88.319999999999993          0.0000000000000000     
  -88.305000000000007          0.0000000000000000     
  -88.290000000000006          0.0000000000000000     
  -88.275000000000006          0.0000000000000000     
  -88.260000000000005          0.0000000000000000     
  -88.245000000000005          0.0000000000000000     
  -88.230000000000004          0.0000000000000000     
  -88.215000000000003          0.0000000000000000     
  -88.200000000000003          0.0000000000000000     
  -88.185000000000002          0.0000000000000000     
  -88.170000000000002          0.0000000000000000     
  -88.155000000000001          0.0000000000000000     
  -88.140000000000001          0.0000000000000000     
  -88.125000000000000          0.0000000000000000     
  -88.109999999999999          0.0000000000000000     
  -88.094999999999999          0.0000000000000000     
  -88.079999999999998          0.0000000000000000     
  -88.064999999999998          0.0000000000000000     
  -88.049999999999997          0.0000000000000000     
  -88.034999999999997          0.0000000000000000     
  -88.019999999999996          0.0000000000000000     
  -88.004999999999995          0.0000000000000000     
  -87.989999999999995          0.0000000000000000     
  -87.974999999999994          0.0000000000000000     
  -87.959999999999994          0.0000000000000000     
  -87.944999999999993          0.0000000000000000     
  -87.930000000000007          0.0000000000000000     
  -87.915000000000006          0.0000000000000000     
  -87.900000000000006          0.0000000000000000     
  -87.885000000000005          0.0000000000000000     
  -87.870000000000005          0.0000000000000000     
  -87.855000000000004          0.0000000000000000     
  -87.840000000000003          0.0000000000000000     
  -87.825000000000003          0.0000000000000000     
  -87.810000000000002          0.0000000000000000     
  -87.795000000000002          0.0000000000000000     
  -87.780000000000001          0.0000000000000000     
  -87.765000000000001          0.0000000000000000     
  -87.750000000000000          0.0000000000000000     
  -87.734999999999999          0.0000000000000000     
  -87.719999999999999          0.0000000000000000     
  -87.704999999999998          0.0000000000000000     
  -87.689999999999998          0.0000000000000000     
  -87.674999999999997          0.0000000000000000     
  -87.659999999999997          0.0000000000000000     
  -87.644999999999996          0.0000000000000000     
  -87.629999999999995          0.0000000000000000     
  -87.614999999999995          0.0000000000000000     
  -87.599999999999994          0.0000000000000000     
  -87.584999999999994          0.0000000000000000     
  -87.569999999999993          0.0000000000000000     
  -87.555000000000007          0.0000000000000000     
  -87.540000000000006          0.0000000000000000     
  -87.525000000000006          0.0000000000000000     
  -87.510000000000005          0.0000000000000000     
  -87.495000000000005          0.0000000000000000     
  -87.480000000000004          0.0000000000000000     
  -87.465000000000003          0.0000000000000000     
  -87.450000000000003          0.0000000000000000     
  -87.435000000000002          0.0000000000000000     
  -87.420000000000002          0.0000000000000000     
  -87.405000000000001          0.0000000000000000     
  -87.390000000000001          0.0000000000000000     
  -87.375000000000000          0.0000000000000000     
  -87.359999999999999          0.0000000000000000     
  -87.344999999999999          0.0000000000000000     
  -87.329999999999998          0.0000000000000000     
  -87.314999999999998          0.0000000000000000     
  -87.299999999999997          0.0000000000000000     
  -87.284999999999997          0.0000000000000000     
  -87.269999999999996          0.0000000000000000     
  -87.254999999999995          0.0000000000000000     
  -87.239999999999995          0.0000000000000000     
  -87.224999999999994          0.0000000000000000     
  -87.209999999999994          0.0000000000000000     
  -87.194999999999993          0.0000000000000000     
  -87.180000000000007          0.0000000000000000     
  -87.165000000000006          0.0000000000000000     
  -87.150000000000006          0.0000000000000000     
  -87.135000000000005          0.0000000000000000     
  -87.120000000000005          0.0000000000000000     
  -87.105000000000004          0.0000000000000000     
  -87.090000000000003          0.0000000000000000     
  -87.075000000000003          0.0000000000000000     
  -87.060000000000002          0.0000000000000000     
  -87.045000000000002          0.0000000000000000     
  -87.030000000000001          0.0000000000000000     
  -87.015000000000001          0.0000000000000000     
  -87.000000000000000          0.0000000000000000     
  -86.984999999999999          0.0000000000000000     
  -86.969999999999999          0.0000000000000000     
  -86.954999999999998          0.0000000000000000     
  -86.939999999999998          0.0000000000000000     
  -86.924999999999997          0.0000000000000000     
  -86.909999999999997          0.0000000000000000     
  -86.894999999999996          0.0000000000000000     
  -86.879999999999995          0.0000000000000000     
  -86.864999999999995          0.0000000000000000     
  -86.849999999999994          0.0000000000000000     
  -86.834999999999994          0.0000000000000000     
  -86.819999999999993          0.0000000000000000     
  -86.805000000000007          0.0000000000000000     
  -86.790000000000006          0.0000000000000000     
  -86.775000000000006          0.0000000000000000     
  -86.760000000000005          0.0000000000000000     
  -86.745000000000005          0.0000000000000000     
  -86.730000000000004          0.0000000000000000     
  -86.715000000000003          0.0000000000000000     
  -86.700000000000003          0.0000000000000000     
  -86.685000000000002          0.0000000000000000     
  -86.670000000000002          0.0000000000000000     
  -86.655000000000001          0.0000000000000000     
  -86.640000000000001          0.0000000000000000     
  -86.625000000000000          0.0000000000000000     
  -86.609999999999999          0.0000000000000000     
  -86.594999999999999          0.0000000000000000     
  -86.579999999999998          0.0000000000000000     
  -86.564999999999998          0.0000000000000000     
  -86.549999999999997          0.0000000000000000     
  -86.534999999999997          0.0000000000000000     
  -86.519999999999996          0.0000000000000000     
  -86.504999999999995          0.0000000000000000     
  -86.489999999999995          0.0000000000000000     
  -86.474999999999994          0.0000000000000000     
  -86.459999999999994          0.0000000000000000     
  -86.444999999999993          0.0000000000000000     
  -86.430000000000007          0.0000000000000000     
  -86.415000000000006          0.0000000000000000     
  -86.400000000000006          0.0000000000000000     
  -86.385000000000005          0.0000000000000000     
  -86.370000000000005          0.0000000000000000     
  -86.355000000000004          0.0000000000000000     
  -86.340000000000003          0.0000000000000000     
  -86.325000000000003          0.0000000000000000     
  -86.310000000000002          0.0000000000000000     
  -86.295000000000002          0.0000000000000000     
  -86.280000000000001          0.0000000000000000     
  -86.265000000000001          0.0000000000000000     
  -86.250000000000000          0.0000000000000000     
  -86.234999999999999          0.0000000000000000     
  -86.219999999999999          0.0000000000000000     
  -86.204999999999998          0.0000000000000000     
  -86.189999999999998          0.0000000000000000     
  -86.174999999999997          0.0000000000000000     
  -86.159999999999997          0.0000000000000000     
  -86.144999999999996          0.0000000000000000     
  -86.129999999999995          0.0000000000000000     
  -86.114999999999995          0.0000000000000000     
  -86.099999999999994          0.0000000000000000     
  -86.084999999999994          0.0000000000000000     
  -86.069999999999993          0.0000000000000000     
  -86.055000000000007          0.0000000000000000     
  -86.040000000000006          0.0000000000000000     
  -86.025000000000006          0.0000000000000000     
  -86.010000000000005          0.0000000000000000     
  -85.995000000000005          0.0000000000000000     
  -85.980000000000004          0.0000000000000000     
  -85.965000000000003          0.0000000000000000     
  -85.950000000000003          0.0000000000000000     
  -85.935000000000002          0.0000000000000000     
  -85.920000000000002          0.0000000000000000     
  -85.905000000000001          0.0000000000000000     
  -85.890000000000001          0.0000000000000000     
  -85.875000000000000          0.0000000000000000     
  -85.859999999999999          0.0000000000000000     
  -85.844999999999999          0.0000000000000000     
  -85.829999999999998          0.0000000000000000     
  -85.814999999999998          0.0000000000000000     
  -85.799999999999997          0.0000000000000000     
  -85.784999999999997          0.0000000000000000     
  -85.769999999999996          0.0000000000000000     
  -85.754999999999995          0.0000000000000000     
  -85.739999999999995          0.0000000000000000     
  -85.724999999999994          0.0000000000000000     
  -85.709999999999994          0.0000000000000000     
  -85.694999999999993          0.0000000000000000     
  -85.680000000000007          0.0000000000000000     
  -85.665000000000006          0.0000000000000000     
  -85.650000000000006          0.0000000000000000     
  -85.635000000000005          0.0000000000000000     
  -85.620000000000005          0.0000000000000000     
  -85.605000000000004          0.0000000000000000     
  -85.590000000000003          0.0000000000000000     
  -85.575000000000003          0.0000000000000000     
  -85.560000000000002          0.0000000000000000     
  -85.545000000000002          0.0000000000000000     
  -85.530000000000001          0.0000000000000000     
  -85.515000000000001          0.0000000000000000     
  -85.500000000000000          0.0000000000000000     
  -85.484999999999999          0.0000000000000000     
  -85.469999999999999          0.0000000000000000     
  -85.454999999999998          0.0000000000000000     
  -85.439999999999998          0.0000000000000000     
  -85.424999999999997          0.0000000000000000     
  -85.409999999999997          0.0000000000000000     
  -85.394999999999996          0.0000000000000000     
  -85.379999999999995          0.0000000000000000     
  -85.364999999999995          0.0000000000000000     
  -85.349999999999994          0.0000000000000000     
  -85.334999999999994          0.0000000000000000     
  -85.319999999999993          0.0000000000000000     
  -85.305000000000007          0.0000000000000000     
  -85.290000000000006          0.0000000000000000     
  -85.275000000000006          0.0000000000000000     
  -85.260000000000005          0.0000000000000000     
  -85.245000000000005          0.0000000000000000     
  -85.230000000000004          0.0000000000000000     
  -85.215000000000003          0.0000000000000000     
  -85.200000000000003          0.0000000000000000     
  -85.185000000000002          0.0000000000000000     
  -85.170000000000002          0.0000000000000000     
  -85.155000000000001          0.0000000000000000     
  -85.140000000000001          0.0000000000000000     
  -85.125000000000000          0.0000000000000000     
  -85.109999999999999          0.0000000000000000     
  -85.094999999999999          0.0000000000000000     
  -85.079999999999998          0.0000000000000000     
  -85.064999999999998          0.0000000000000000     
  -85.049999999999997          0.0000000000000000     
  -85.034999999999997          0.0000000000000000     
  -85.019999999999996          0.0000000000000000     
  -85.004999999999995          0.0000000000000000     
  -84.989999999999995          0.0000000000000000     
  -84.974999999999994          0.0000000000000000     
  -84.959999999999994          0.0000000000000000     
  -84.944999999999993          0.0000000000000000     
  -84.930000000000007          0.0000000000000000     
  -84.915000000000006          0.0000000000000000     
  -84.900000000000006          0.0000000000000000     
  -84.885000000000005          0.0000000000000000     
  -84.870000000000005          0.0000000000000000     
  -84.855000000000004          0.0000000000000000     
  -84.840000000000003          0.0000000000000000     
  -84.825000000000003          0.0000000000000000     
  -84.810000000000002          0.0000000000000000     
  -84.795000000000002          0.0000000000000000     
  -84.780000000000001          0.0000000000000000     
  -84.765000000000001          0.0000000000000000     
  -84.750000000000000          0.0000000000000000     
  -84.734999999999999          0.0000000000000000     
  -84.719999999999999          0.0000000000000000     
  -84.704999999999998          0.0000000000000000     
  -84.689999999999998          0.0000000000000000     
  -84.674999999999997          0.0000000000000000     
  -84.659999999999997          0.0000000000000000     
  -84.644999999999996          0.0000000000000000     
  -84.629999999999995          0.0000000000000000     
  -84.614999999999995          0.0000000000000000     
  -84.599999999999994          0.0000000000000000     
  -84.584999999999994          0.0000000000000000     
  -84.569999999999993          0.0000000000000000     
  -84.555000000000007          0.0000000000000000     
  -84.540000000000006          0.0000000000000000     
  -84.525000000000006          0.0000000000000000     
  -84.510000000000005          0.0000000000000000     
  -84.495000000000005          0.0000000000000000     
  -84.480000000000004          0.0000000000000000     
  -84.465000000000003          0.0000000000000000     
  -84.450000000000003          0.0000000000000000     
  -84.435000000000002          0.0000000000000000     
  -84.420000000000002          0.0000000000000000     
  -84.405000000000001          0.0000000000000000     
  -84.390000000000001          0.0000000000000000     
  -84.375000000000000          0.0000000000000000     
  -84.359999999999999          0.0000000000000000     
  -84.344999999999999          0.0000000000000000     
  -84.329999999999998          0.0000000000000000     
  -84.314999999999998          0.0000000000000000     
  -84.299999999999997          0.0000000000000000     
  -84.284999999999997          0.0000000000000000     
  -84.269999999999996          0.0000000000000000     
  -84.254999999999995          0.0000000000000000     
  -84.239999999999995          0.0000000000000000     
  -84.224999999999994          0.0000000000000000     
  -84.209999999999994          0.0000000000000000     
  -84.194999999999993         -1.4840260809840827E-038
  -84.180000000000007         -3.3135137118587768E-038
  -84.165000000000006         -5.5107384935323754E-038
  -84.150000000000006         -8.0930602719003200E-038
  -84.135000000000005         -1.1072449498964259E-037
  -84.120000000000005         -1.4453395935003889E-037
  -84.105000000000004         -1.8231240542885023E-037
  -84.090000000000003         -2.2391543222192486E-037
  -84.075000000000003         -2.6909298082090095E-037
  -84.060000000000002         -3.1749152043881093E-037
  -84.045000000000002         -3.6865490039954777E-037
  -84.030000000000001         -4.2201145819199324E-037
  -84.015000000000001         -4.7630583217909116E-037
  -84.000000000000000         -5.2985650904520262E-037
  -83.984999999999999         -5.8175073902260500E-037
  -83.969999999999999         -6.3087183297027171E-037
  -83.954999999999998         -6.7556881466869839E-037
  -83.939999999999998         -7.1439289845120119E-037
  -83.924999999999997         -7.4580745405296466E-037
  -83.909999999999997         -7.6818509191023596E-037
  -83.894999999999996         -7.6818509191023596E-037
  -83.879999999999995         -7.6818509191023596E-037
  -83.864999999999995         -7.5300775155739873E-037
  -83.849999999999994         -7.2180646237151778E-037
  -83.834999999999994         -6.7294634624984692E-037
  -83.819999999999993         -6.0493135453109756E-037
  -83.805000000000007         -5.1643825789098933E-037
  -83.790000000000006         -4.0635592754080209E-037
  -83.775000000000006         -2.7383824825738880E-037
  -83.760000000000005         -1.1834669543571557E-037
  -83.745000000000005          6.0313399306881598E-038
  -83.730000000000004          2.6135175968846208E-037
  -83.715000000000003          4.8389499561256922E-037
  -83.700000000000003          7.2760631340109334E-037
  -83.685000000000002          9.9175304695455912E-037
  -83.670000000000002          1.2740023594311095E-036
  -83.655000000000001          1.5709672339697573E-036
  -83.640000000000001          1.8769652595626253E-036
  -83.625000000000000          2.1852039277687854E-036
  -83.609999999999999          2.4856164897867318E-036
  -83.594999999999999          2.7667328356392939E-036
  -83.579999999999998          3.0050522259864013E-036
  -83.564999999999998          3.2014399233934174E-036
  -83.549999999999997          3.3457163577168766E-036
  -83.534999999999997          3.4228811333636287E-036
  -83.519999999999996          3.4615582265424177E-036
  -83.504999999999995          3.4665898072811364E-036
  -83.489999999999995          3.4361269687547915E-036
  -83.474999999999994          3.3197114868106698E-036
  -83.459999999999994          3.1415689196169170E-036
  -83.444999999999993          2.8909297615869745E-036
  -83.430000000000007          2.5598055801185208E-036
  -83.415000000000006          2.1552278891185592E-036
  -83.400000000000006          1.6551556314105614E-036
  -83.385000000000005          1.0574773977308091E-036
  -83.370000000000005          3.6449676580922431E-037
  -83.355000000000004         -4.3888582703706640E-037
  -83.340000000000003         -1.3359026227501556E-036
  -83.325000000000003         -2.5290374603139320E-036
  -83.310000000000002         -4.0319413185315637E-036
  -83.295000000000002         -5.8562297733712059E-036
  -83.280000000000001         -7.9694900963089872E-036
  -83.265000000000001         -1.0404597242575027E-035
  -83.250000000000000         -1.3104520651590400E-035
  -83.234999999999999         -1.5549858846100291E-035
  -83.219999999999999         -1.7682910435924933E-035
  -83.204999999999998         -1.9455042786130160E-035
  -83.189999999999998         -2.0799904750741823E-035
  -83.174999999999997         -2.1690221187400998E-035
  -83.159999999999997         -2.2045425102314206E-035
  -83.144999999999996         -2.2156785685913163E-035
  -83.129999999999995         -2.1992418801875515E-035
  -83.114999999999995         -2.1532529595990335E-035
  -83.099999999999994         -2.0752282306265394E-035
  -83.084999999999994         -1.9597544212504440E-035
  -83.069999999999993         -1.7961740221416124E-035
  -83.055000000000007         -1.5868585414953619E-035
  -83.040000000000006         -1.3169411039203785E-035
  -83.025000000000006         -9.8287341543385785E-036
  -83.010000000000005         -5.8256413785024575E-036
  -82.995000000000005         -1.1145797944742106E-036
  -82.980000000000004          4.6170403313152142E-036
  -82.965000000000003          1.1154139908131394E-035
  -82.950000000000003          1.8459385295659259E-035
  -82.935000000000002          2.6475335543446425E-035
  -82.920000000000002          3.5130486673226504E-035
  -82.905000000000001          4.4421386244315807E-035
  -82.890000000000001          5.4276385350555571E-035
  -82.875000000000000          6.4567339036494339E-035
  -82.859999999999999          7.5040086826796360E-035
  -82.844999999999999          8.5446850813108865E-035
  -82.829999999999998          9.5542636850556372E-035
  -82.814999999999998          1.0507419133932769E-034
  -82.799999999999997          1.1373499035212149E-034
  -82.784999999999997          1.2118936941076179E-034
  -82.769999999999996          1.2709946572488336E-034
  -82.754999999999995          1.3112314615354958E-034
  -82.739999999999995          1.3291701481775170E-034
  -82.724999999999994          1.3211904471219790E-034
  -82.709999999999994          1.2841037151479060E-034
  -82.694999999999993          1.2146706847170654E-034
  -82.680000000000007          1.1099807445730997E-034
  -82.665000000000006          9.6573071295478603E-035
  -82.650000000000006          7.8181440506969157E-035
  -82.635000000000005          5.5600153849643445E-035
  -82.620000000000005          2.8894592457047446E-035
  -82.605000000000004         -2.1592338539060447E-036
  -82.590000000000003         -3.7610085247521836E-035
  -82.575000000000003         -7.7371302198174418E-035
  -82.560000000000002         -1.2133266722307932E-034
  -82.545000000000002         -1.6929060972584682E-034
  -82.530000000000001         -2.2094105089926079E-034
  -82.515000000000001         -2.7591152892977845E-034
  -82.500000000000000         -3.3368344877059565E-034
  -82.484999999999999         -3.9365932868370847E-034
  -82.469999999999999         -4.5507050556627453E-034
  -82.454999999999998         -5.1702195067273806E-034
  -82.439999999999998         -5.7848359116044294E-034
  -82.424999999999997         -6.3825137183926176E-034
  -82.409999999999997         -6.9497003037464295E-034
  -82.394999999999996         -7.4712804633532213E-034
  -82.379999999999995         -7.9304873315019480E-034
  -82.364999999999995         -8.3094869140162082E-034
  -82.349999999999994         -8.5890249807715177E-034
  -82.334999999999994         -8.7487030313612633E-034
  -82.319999999999993         -8.7672455363905233E-034
  -82.305000000000007         -8.6228085047431579E-034
  -82.290000000000006         -8.2933137647878244E-034
  -82.275000000000006         -7.7568833462748045E-034
  -82.260000000000005         -6.9923317185954114E-034
  -82.245000000000005         -5.9796786920280315E-034
  -82.230000000000004         -4.7007422158658251E-034
  -82.215000000000003         -3.1398214049194007E-034
  -82.200000000000003         -1.2843118373410741E-034
  -82.185000000000002          8.7460544956520668E-035
  -82.170000000000002          3.3411087412858898E-034
  -82.155000000000001          6.1138329031705866E-034
  -82.140000000000001          9.1853973459818199E-034
  -82.125000000000000          1.2541363004247409E-033
  -82.109999999999999          1.6159662267418070E-033
  -82.094999999999999          2.0009826872933465E-033
  -82.079999999999998          2.4052340925151773E-033
  -82.064999999999998          2.8238111004536854E-033
  -82.049999999999997          3.2507884848967573E-033
  -82.034999999999997          3.6792025438417249E-033
  -82.019999999999996          4.1010301610022413E-033
  -82.004999999999995          4.5071884384662966E-033
  -81.989999999999995          4.8875571045572801E-033
  -81.974999999999994          5.2310233295561058E-033
  -81.960000000000008          5.5255544594141689E-033
  -81.944999999999993          5.7583005041670587E-033
  -81.930000000000007          5.9157282177589489E-033
  -81.915000000000006          5.9837897080135440E-033
  -81.900000000000006          5.9481285154874575E-033
  -81.885000000000005          5.7943213244960999E-033
  -81.870000000000005          5.5081586123899376E-033
  -81.855000000000004          5.0759612983452454E-033
  -81.840000000000003          4.4849352283792768E-033