  -90.000000000000000          0.0000000000000000     
  -89.984999999999999          0.0000000000000000     
  -89.969999999999999          0.0000000000000000     
  -89.954999999999998          0.0000000000000000     
  -89.939999999999998          0.0000000000000000     
  -89.924999999999997          0.0000000000000000     
  -89.909999999999997          0.0000000000000000     
  -89.894999999999996          0.0000000000000000     
  -89.879999999999995          0.0000000000000000     
  -89.864999999999995          0.0000000000000000     
  -89.849999999999994          0.0000000000000000     
  -89.834999999999994          0.0000000000000000     
  -89.819999999999993          0.0000000000000000     
  -89.805000000000007          0.0000000000000000     
  -89.790000000000006          0.0000000000000000     
  -89.775000000000006          0.0000000000000000     
  -89.760000000000005          0.0000000000000000     
  -89.745000000000005          0.0000000000000000     
  -89.730000000000004          0.0000000000000000     
  -89.715000000000003         -2.2971983186631562E-038
  -89.700000000000003         -1.7469922934488750E-037
  -89.685000000000002         -6.7968015710070111E-037
  -89.670000000000002         -2.1158611328875681E-036
  -89.655000000000001         -5.8903387680809486E-036
  -89.640000000000001         -1.5156696737751656E-035
  -89.625000000000000         -3.6195230285541509E-035
  -89.609999999999999         -8.2465795991479842E-035
  -89.594999999999999         -1.8067938215201374E-034
  -89.579999999999998         -3.8170096955149564E-034
  -89.564999999999998         -7.7875068108236483E-034
  -89.549999999999997         -1.5365374306082719E-033
  -89.534999999999997         -2.9361150756663620E-033
  -89.519999999999996         -5.4401283462040362E-033
  -89.504999999999995         -9.7833367920985622E-033
  -89.489999999999995         -1.7089107650856005E-032
  -89.474999999999994         -2.9005690448524576E-032
  -89.459999999999994         -4.7839907625252579E-032
  -89.444999999999993         -7.6638117443385268E-032
  -89.430000000000007         -1.1911694504410676E-031
  -89.415000000000006         -1.7927078782243637E-031
  -89.400000000000006         -2.6036729672973339E-031
  -89.385000000000005         -3.6287021604234073E-031
  -89.370000000000005         -4.8058205742407909E-031
  -89.355000000000004         -5.9395308028687494E-031
  -89.340000000000003         -6.5903098661619455E-031
  -89.325000000000003         -5.8989649630196126E-031
  -89.310000000000002         -2.3160725227443603E-031
  -89.295000000000002          6.8037424946497869E-031
  -89.280000000000001          2.5796009118625509E-030
  -89.265000000000001          6.1538434534473904E-030
  -89.250000000000000          1.2464922535893539E-029
  -89.234999999999999          2.3114222764964621E-029
  -89.219999999999999          4.0467516611577537E-029
  -89.204999999999998          6.7955475122731423E-029
  -89.189999999999998          1.1046922308711302E-028
  -89.174999999999997          1.7487335561476730E-028
  -89.159999999999997          2.7066172029242682E-028
  -89.144999999999996          4.1078381265778958E-028
  -89.129999999999995          6.1267124871162875E-028
  -89.114999999999995          8.9949469902187272E-028
  -89.099999999999994          1.3016809678149232E-027
  -89.084999999999994          1.8587155671071046E-027
  -89.069999999999993          2.6212503581393040E-027
  -89.055000000000007          3.6535276231014742E-027
  -89.040000000000006          5.0361130560202164E-027
  -89.025000000000006          6.8689115764586964E-027
  -89.010000000000005          9.2744127140659314E-027
  -88.995000000000005          1.2401075237861056E-026
  -88.980000000000004          1.6426711015145610E-026
  -88.965000000000003          2.1561682440397212E-026
  -88.950000000000003          2.8051644189138387E-026
  -88.935000000000002          3.6179503044247976E-026
  -88.920000000000002          4.6266134341900448E-026
  -88.905000000000001          5.8669354295347573E-026
  -88.890000000000001          7.3780447158042707E-026
  -88.875000000000000          9.2017499965289253E-026
  -88.859999999999999          1.1381458343018507E-025
  -88.844999999999999          1.3960571279904563E-025
  -88.829999999999998          1.6980243310833923E-025
  -88.814999999999998          2.0476366374398980E-025
  -88.799999999999997          2.4475624923313997E-025
  -88.784999999999997          2.8990485425071797E-025
  -88.769999999999996          3.4012950802245701E-025
  -88.754999999999995          3.9506928203231519E-025
  -88.739999999999995          4.5399053563843697E-025
  -88.724999999999994          5.1567876817342803E-025
  -88.709999999999994          5.7831264771855277E-025
  -88.694999999999993          6.3932019189995124E-025
  -88.680000000000007          6.9521715001068197E-025
  -88.665000000000006          7.4142837531949596E-025
  -88.650000000000006          7.7209460345286415E-025
  -88.635000000000005          7.7986759507865281E-025
  -88.620000000000005          7.5569886909494406E-025
  -88.605000000000004          6.8862833721124320E-025
  -88.590000000000003          5.6558196112628951E-025
  -88.575000000000003          3.7118846562710883E-025
  -88.560000000000002          8.7629307105601824E-026
  -88.545000000000002         -3.0546304019442294E-025
  -88.530000000000001         -8.3104021313943463E-025
  -88.515000000000001         -1.5145854265002731E-024
  -88.500000000000000         -2.3839512634285127E-024
  -88.484999999999999         -3.4690619790723548E-024
  -88.469999999999999         -4.8014543588778856E-024
  -88.454999999999998         -6.4136328247990577E-024
  -88.439999999999998         -8.3382100699490659E-024
  -88.424999999999997         -1.0606806005991884E-023
  -88.409999999999997         -1.3248693288968000E-023
  -88.394999999999996         -1.6289157277472464E-023
  -88.379999999999995         -1.9747570817615693E-023
  -88.364999999999995         -2.3635178332740707E-023
  -88.349999999999994         -2.7952591978909959E-023
  -88.334999999999994         -3.2687022743128004E-023
  -88.319999999999993         -3.7809273305570803E-023
  -88.305000000000007         -4.3270563663303110E-023
  -88.290000000000006         -4.8999214759032922E-023
  -88.275000000000006         -5.4897316332647828E-023
  -88.260000000000005         -6.0837464192511014E-023
  -88.245000000000005         -6.6659686813374521E-023
  -88.230000000000004         -7.2168712722203561E-023
  -88.215000000000003         -7.7131714355987584E-023
  -88.200000000000003         -8.1276761894366045E-023
  -88.185000000000002         -8.4292084885821115E-023
  -88.170000000000002         -8.5826413035588741E-023
  -88.155000000000001         -8.5490509751258393E-023
  -88.140000000000001         -8.2860144570663934E-023
  -88.125000000000000         -7.7480662244246668E-023
  -88.109999999999999         -6.8873249446086405E-023
  -88.094999999999999         -5.6543069507556111E-023
  -88.079999999999998         -3.9989290417149069E-023
  -88.064999999999998         -1.8717094438899969E-023
  -88.049999999999997          7.7484513463185957E-024
  -88.034999999999997          3.9846721163470286E-023
  -88.019999999999996          7.7964246600921631E-023
  -88.004999999999995          1.2241605373914631E-022
  -87.989999999999995          1.7342603392482051E-022
  -87.974999999999994          2.3110665979036705E-022
  -87.959999999999994          2.9543878410389439E-022
  -87.944999999999993          3.6625173523083615E-022
  -87.930000000000007          4.4320462428594099E-022
  -87.915000000000006          5.2576965914740537E-022
  -87.900000000000006          6.1321770514686436E-022
  -87.885000000000005          7.0460748083043376E-022
  -87.870000000000005          7.9877838879080346E-022
  -87.855000000000004          8.9434834472202625E-022
  -87.840000000000003          9.8971675615829594E-022
  -87.825000000000003          1.0830731557676941E-021
  -87.810000000000002          1.1724119940718847E-021
  -87.795000000000002          1.2555540459756384E-021
  -87.780000000000001          1.3301737747739127E-021
  -87.765000000000001          1.3938324516880964E-021
  -87.750000000000000          1.4440178387249867E-021
  -87.734999999999999          1.4781879105035994E-021
  -87.719999999999999          1.4938187160240106E-021
  -87.704999999999998          1.4884552696620747E-021
  -87.689999999999998          1.4597631489835126E-021
  -87.674999999999997          1.4055800925580008E-021
  -87.659999999999997          1.3239653763409509E-021
  -87.644999999999996          1.2132447471906706E-021
  -87.629999999999995          1.0720499037789488E-021
  -87.614999999999995          8.9934919274659916E-022
  -87.599999999999994          6.9446921718137609E-022
  -87.584999999999994          4.5710483306336560E-022
  -87.569999999999993          1.8731628412217761E-022
  -87.555000000000007         -1.1448700452149094E-022
  -87.540000000000006         -4.4757655453154826E-022
  -87.525000000000006         -8.1094890959300427E-022
  -87.510000000000005         -1.2033819916350395E-021
  -87.495000000000005         -1.6235034098745102E-021
  -87.480000000000004         -2.0698668099297989E-021
  -87.465000000000003         -2.5410346221743288E-021
  -87.450000000000003         -3.0356617693449384E-021
  -87.435000000000002         -3.5525767488211638E-021
  -87.420000000000002         -4.0908556467108101E-021
  -87.405000000000001         -4.6498786833996379E-021
  -87.390000000000001         -5.2293695934877514E-021
  -87.375000000000000         -5.8294079446414948E-021
  -87.359999999999999         -6.4504061154767944E-021
  -87.344999999999999         -7.0930503266287709E-021
  -87.329999999999998         -7.7581964353816039E-021
  -87.314999999999998         -8.4467168587875956E-021
  -87.299999999999997         -9.1592966057915164E-021
  -87.284999999999997         -9.8961772066698832E-021
  -87.269999999999996         -1.0656848943681953E-020
  -87.254999999999995         -1.1439693806313132E-020
  -87.239999999999995         -1.2241586441252905E-020
  -87.224999999999994         -1.3057458751662251E-020
  -87.209999999999994         -1.3879838647046917E-020
  -87.194999999999993         -1.4698390408717824E-020
  -87.180000000000007         -1.5499440514967273E-020
  -87.165000000000006         -1.6265558396207694E-020
  -87.150000000000006         -1.6975161423917418E-020
  -87.135000000000005         -1.7602207949085228E-020
  -87.120000000000005         -1.8115979197947290E-020
  -87.105000000000004         -1.8480995261456188E-020
  -87.090000000000003         -1.8657068409656343E-020
  -87.075000000000003         -1.8599545429754095E-020
  -87.060000000000002         -1.8259727678772521E-020
  -87.045000000000002         -1.7585531858689188E-020
  -87.030000000000001         -1.6522357586727062E-020
  -87.015000000000001         -1.5014215075173959E-020
  -87.000000000000000         -1.3005085455749287E-020
  -86.984999999999999         -1.0440519403073029E-020
  -86.969999999999999         -7.2694684026820116E-021
  -86.954999999999998         -3.4463082739151081E-021
  -86.939999999999998          1.0669642374298465E-021
  -86.924999999999997          6.2984080428491243E-021
  -86.909999999999997          1.2263746642174944E-020
  -86.894999999999996          1.8963963726023453E-020
  -86.879999999999995          2.6382961180295763E-020
  -86.864999999999995          3.4485366532488862E-020
  -86.849999999999994          4.3214561531495482E-020
  -86.834999999999994          5.2491023747411160E-020
  -86.819999999999993          6.2211097109725344E-020
  -86.805000000000007          7.2246264893111145E-020
  -86.790000000000006          8.2442959078143530E-020
  -86.775000000000006          9.2623129037970462E-020
  -86.760000000000005          1.0258546615336038E-019
  -86.745000000000005          1.1210747822658213E-019
  -86.730000000000004          1.2094834583945768E-019
  -86.715000000000003          1.2885267697786127E-019
  -86.700000000000003          1.3555508883683118E-019
  -86.685000000000002          1.4078555864515711E-019
  -86.670000000000002          1.4427562751997440E-019
  -86.655000000000001          1.4576516008333219E-019
  -86.640000000000001          1.4500969861482693E-019
  -86.625000000000000          1.4178823079454209E-019
  -86.609999999999999          1.3591117716583818E-019
  -86.594999999999999          1.2722835274874855E-019
  -86.579999999999998          1.1563682525579862E-019
  -86.564999999999998          1.0108823693289672E-019
  -86.549999999999997          8.3595583562947890E-020
  -86.534999999999997          6.3238920719610766E-020
  -86.519999999999996          4.0169997271197620E-020
  -86.504999999999995          1.4615402544411161E-020
  -86.489999999999995         -1.3121881904213354E-020
  -86.474999999999994         -4.2662783595308596E-020
  -86.459999999999994         -7.3554418720121080E-020
  -86.444999999999993         -1.0527448169075396E-019
  -86.430000000000007         -1.3723780684731132E-019
  -86.415000000000006         -1.6880507404916916E-019
  -86.400000000000006         -1.9929364603346958E-019
  -86.385000000000005         -2.2799044141340357E-019
  -86.370000000000005         -2.5416649434946170E-019
  -86.355000000000004         -2.7709322674304669E-019
  -86.340000000000003         -2.9605983195403405E-019
  -86.325000000000003         -3.1039153739773367E-019
  -86.310000000000002         -3.1946837120503704E-019
  -86.295000000000002         -3.2274372208741146E-019
  -86.280000000000001         -3.1976258900916449E-019
  -86.265000000000001         -3.1017848669121298E-019
  -86.250000000000000         -2.9376905864514501E-019
  -86.234999999999999         -2.7044936376180905E-019
  -86.219999999999999         -2.4028273305685369E-019
  -86.204999999999998         -2.0348864081124397E-019
  -86.189999999999998         -1.6044711189296266E-019
  -86.174999999999997         -1.1169961356110814E-019
  -86.159999999999997         -5.7946121559659256E-020
  -86.144999999999996         -3.8255285795051901E-023
  -86.129999999999995          6.1031414771602551E-020
  -86.114999999999995          1.2414377039514417E-019
  -86.099999999999994          1.8807096354553587E-019
  -86.084999999999994          2.5149718251275308E-019
  -86.069999999999993          3.1304203087550671E-019
  -86.055000000000007          3.7128570481113777E-019
  -86.040000000000006          4.2479547579991615E-019
  -86.025000000000006          4.7215257399494853E-019
  -86.010000000000005          5.1197852875480945E-019
  -85.995000000000005          5.4296088879071280E-019
  -85.980000000000004          5.6387646077184582E-019
  -85.965000000000003          5.7361242828038324E-019
  -85.950000000000003          5.7118377430313926E-019
  -85.935000000000002          5.5574729160319265E-019
  -85.920000000000002          5.2661135379087251E-019
  -85.905000000000001          4.8324139539531643E-019
  -85.890000000000001          4.2526135943054250E-019
  -85.875000000000000          3.5245067301633462E-019
  -85.859999999999999          2.6473806937304253E-019
  -85.844999999999999          1.6219241128666126E-019
  -85.829999999999998          4.5011394923590993E-020
  -85.814999999999998         -8.6490573535215704E-020
  -85.799999999999997         -2.3189421691677101E-019
  -85.784999999999997         -3.9068564926552636E-019
  -85.769999999999996         -5.6226356197494398E-019
  -85.754999999999995         -7.4594191212448771E-019
  -85.739999999999995         -9.4094700149808491E-019
  -85.724999999999994         -1.1464072919228344E-018
  -85.709999999999994         -1.3613354916388658E-018
  -85.694999999999993         -1.5846014651342786E-018
  -85.680000000000007         -1.8148965092824373E-018
  -85.665000000000006         -2.0506886855888938E-018
  -85.650000000000006         -2.2901688466564179E-018
  -85.635000000000005         -2.5311902520002814E-018
  -85.620000000000005         -2.7712024969968303E-018
  -85.605000000000004         -3.0071805821459580E-018
  -85.590000000000003         -3.2355556366948046E-018
  -85.575000000000003         -3.4521458490566082E-018
  -85.560000000000002         -3.6520967030114482E-018
  -85.545000000000002         -3.8298292789179608E-018
  -85.530000000000001         -3.9790063393082240E-018
  -85.515000000000001         -4.0925178532270383E-018
  -85.500000000000000         -4.1624927835556554E-018
  -85.484999999999999         -4.1803371373199556E-018
  -85.469999999999999         -4.1368113070777216E-018
  -85.454999999999998         -4.0221404995304142E-018
  -85.439999999999998         -3.8261698318880262E-018
  -85.424999999999997         -3.5385599600839510E-018
  -85.409999999999997         -3.1490277883332357E-018
  -85.394999999999996         -2.6476310192632992E-018
  -85.379999999999995         -2.0250930290995123E-018
  -85.364999999999995         -1.2731671373274511E-018
  -85.349999999999994         -3.8503264526055068E-019
  -85.334999999999994          6.4428374128719342E-019
  -85.319999999999993          1.8174692477826304E-018
  -85.305000000000007          3.1344814036711845E-018
  -85.290000000000006          4.5921101277906905E-018
  -85.275000000000006          6.1835588906381065E-018
  -85.260000000000005          7.8980644180828925E-018
  -85.245000000000005          9.7205633375801515E-018
  -85.230000000000004          1.1631425826013388E-017
  -85.215000000000003          1.3606274870730664E-017
  -85.200000000000003          1.5615904378663956E-017
  -85.185000000000002          1.7626307300469986E-017
  -85.170000000000002          1.9598835276388438E-017
  -85.155000000000001          2.1490493112540031E-017
  -85.140000000000001          2.3254379668193007E-017
  -85.125000000000000          2.4840286734526624E-017
  -85.109999999999999          2.6195446805904899E-017
  -85.094999999999999          2.7265431398021842E-017
  -85.079999999999998          2.7995206530363075E-017
  -85.064999999999998          2.8330304013953207E-017
  -85.049999999999997          2.8218131705446116E-017
  -85.034999999999997          2.7609368133637716E-017
  -85.019999999999996          2.6459441498401198E-017
  -85.004999999999995          2.4730030176318206E-017
  -84.989999999999995          2.2390602930979409E-017
  -84.974999999999994          1.9419907838087093E-017
  -84.959999999999994          1.5807408270998558E-017
  -84.944999999999993          1.1554601426622525E-017
  -84.930000000000007          6.6761854772634496E-018
  -84.915000000000006          1.2010420543940790E-018
  -84.900000000000006         -4.8270261130333001E-018
  -84.885000000000005         -1.1348823705637709E-017
  -84.870000000000005         -1.8289606890064008E-017
  -84.855000000000004         -2.5559260542429140E-017
  -84.840000000000003         -3.3052833640973602E-017
  -84.825000000000003         -4.0651466949118424E-017
  -84.810000000000002         -4.8223696652110554E-017
  -84.795000000000002         -5.5627141805472463E-017
  -84.780000000000001         -6.2710580558339657E-017
  -84.765000000000001         -6.9316391990628933E-017
  -84.750000000000000         -7.5283275882892449E-017
  -84.734999999999999         -8.0449343063086228E-017
  -84.719999999999999         -8.4655351337126460E-017
  -84.704999999999998         -8.7748199499796932E-017
  -84.689999999999998         -8.9584474285215649E-017
  -84.674999999999997         -9.0034089961530073E-017
  -84.659999999999997         -8.8983835281383744E-017
  -84.644999999999996         -8.6340847640489012E-017
  -84.629999999999995         -8.2035849008183333E-017
  -84.614999999999995         -7.6026090690409969E-017
  -84.599999999999994         -6.8297967220453645E-017
  -84.584999999999994         -5.8869127323863795E-017
  -84.569999999999993         -4.7790128279679659E-017
  -84.555000000000007         -3.5145448389500053E-017
  -84.540000000000006         -2.1053923728846794E-017
  -84.525000000000006         -5.6684888260426684E-018
  -84.510000000000005          1.0824770873180251E-017
  -84.495000000000005          2.8208261786377134E-017
  -84.480000000000004          4.6235214016537179E-017
  -84.465000000000003          6.4632710073896478E-017
  -84.450000000000003          8.3105314130875593E-017
  -84.435000000000002          1.0133931959452501E-016
  -84.420000000000002          1.1900748057962896E-016
  -84.405000000000001          1.3577415366339301E-016
  -84.390000000000001          1.5130088962638497E-016
  -84.375000000000000          1.6525209136792474E-016
  -84.359999999999999          1.7730096298904975E-016
  -84.344999999999999          1.8713538608358660E-016
  -84.329999999999998          1.9446370338499399E-016
  -84.314999999999998          1.9902034359452810E-016
  -84.299999999999997          2.0057111533716292E-016
  -84.284999999999997          1.9891806436614715E-016
  -84.269999999999996          1.9390382784174870E-016
  -84.254999999999995          1.8541549891907654E-016
  -84.239999999999995          1.7338771047740428E-016
  -84.224999999999994          1.5780518945390174E-016
  -84.209999999999994          1.3870446414441926E-016
  -84.194999999999993          1.1617496269934117E-016
  -84.180000000000007          9.0359284438826720E-017
  -84.165000000000006          6.1452849128230329E-017
  -84.150000000000006          2.9702864656697147E-017
  -84.135000000000005         -4.5933579297447267E-018
  -84.120000000000005         -4.1090600592710576E-017
  -84.105000000000004         -7.9398466343119260E-017
  -84.090000000000003         -1.1908453410804950E-016
  -84.075000000000003         -1.5967786018627279E-016
  -84.060000000000002         -2.0067279899550284E-016
  -84.045000000000002         -2.4153303309633984E-016
  -84.030000000000001         -2.8169584144423134E-016
  -84.015000000000001         -3.2057650660777585E-016
  -84.000000000000000         -3.5757292051037356E-016
  -83.984999999999999         -3.9207016370209746E-016
  -83.969999999999999         -4.2344550814803802E-016
  -83.954999999999998         -4.5107331413752954E-016
  -83.939999999999998         -4.7433040364940927E-016
  -83.924999999999997         -4.9260169841507258E-016
  -83.909999999999997         -5.0528606973976493E-016
  -83.894999999999996         -5.1180287653814350E-016
  -83.879999999999995         -5.1159879453741442E-016
  -83.864999999999995         -5.0415549251341726E-016
  -83.849999999999994         -4.8899783792230155E-016
  -83.834999999999994         -4.6570305544426900E-016
  -83.819999999999993         -4.3391020316467088E-016
  -83.805000000000007         -3.9333091930452628E-016
  -83.790000000000006         -3.4376053952795489E-016
  -83.775000000000006         -2.8509000834299773E-016
  -83.760000000000005         -2.1731806843512371E-016
  -83.745000000000005         -1.4056403233588747E-016
  -83.730000000000004         -5.5080299319958557E-017
  -83.715000000000003          3.8735164093796427E-017
  -83.700000000000003          1.4032710133867268E-016
  -83.685000000000002          2.4897217936493954E-016
  -83.670000000000002          3.6376970767336761E-016
  -83.655000000000001          4.8363431942116892E-016
  -83.640000000000001          6.0729107120404812E-016
  -83.625000000000000          7.3327372252052843E-016
  -83.609999999999999          8.5992616514005008E-016
  -83.594999999999999          9.8540816704514389E-016
  -83.579999999999998          1.1077055368267984E-015
  -83.564999999999998          1.2246448938214773E-015
  -83.549999999999997          1.3339140498414134E-015
  -83.534999999999997          1.4330874201630255E-015
  -83.519999999999996          1.5196573637459672E-015
  -83.504999999999995          1.5910704997707404E-015
  -83.489999999999995          1.6447701651651765E-015
  -83.474999999999994          1.6782427896582983E-015
  -83.459999999999994          1.6890700941856948E-015
  -83.444999999999993          1.6749842539102110E-015
  -83.430000000000007          1.6339265552535454E-015
  -83.415000000000006          1.5641075352355047E-015
  -83.400000000000006          1.4640692383956276E-015
  -83.385000000000005          1.3327453561324393E-015
  -83.370000000000005          1.1695210484053515E-015
  -83.355000000000004          9.7428842439270785E-016
  -83.340000000000003          7.4749725858950025E-016
  -83.325000000000003          4.9019946003710018E-016
  -83.310000000000002          2.0408485946527997E-016
  -83.295000000000002         -1.0849258562598148E-016
  -83.280000000000001         -4.4449996788992175E-016
  -83.265000000000001         -8.0022320667150833E-016
  -83.250000000000000         -1.1712788535291410E-015
  -83.234999999999999         -1.5526402973164576E-015
  -83.219999999999999         -1.9386794805549860E-015
  -83.204999999999998         -2.3232254505866235E-015
  -83.189999999999998         -2.6996363044345939E-015
  -83.174999999999997         -3.0608899272079222E-015
  -83.159999999999997         -3.3996870124836445E-015
  -83.144999999999996         -3.7085690116447131E-015
  -83.129999999999995         -3.9800477299209262E-015
  -83.114999999999995         -4.2067455103416990E-015
  -83.099999999999994         -4.3815451585677272E-015
  -83.084999999999994         -4.4977407147555985E-015
  -83.069999999999993         -4.5491971192683500E-015
  -83.055000000000007         -4.5305047961883421E-015
  -83.040000000000006         -4.4371333897971852E-015
  -83.025000000000006         -4.2655749131438256E-015
  -83.010000000000005         -4.0134796968325798E-015
  -82.995000000000005         -3.6797770912181185E-015
  -82.980000000000004         -3.2647768986008999E-015
  -82.965000000000003         -2.7702534412471849E-015
  -82.950000000000003         -2.1995033713876873E-015
  -82.935000000000002         -1.5573779643486877E-015
  -82.920000000000002         -8.5028841250795384E-016
  -82.905000000000001         -8.6180308427204720E-017
  -82.890000000000001          7.2552241814108592E-016
  -82.875000000000000          1.5740045858285792E-015
  -82.859999999999999          2.4471783462636865E-015
  -82.844999999999999          3.3318316265955761E-015
  -82.829999999999998          4.2138051064405900E-015
  -82.814999999999998          5.0781954528500255E-015
  -82.799999999999997          5.9095828545355916E-015
  -82.784999999999997          6.6922794142811916E-015
  -82.769999999999996          7.4105904586071504E-015
  -82.754999999999995          8.0490923645769145E-015
  -82.739999999999995          8.5929120806696457E-015
  -82.724999999999994          9.0280134239163930E-015
  -82.709999999999994          9.3414782948385809E-015
  -82.694999999999993          9.5217768809581840E-015
  -82.680000000000007          9.5590234607477974E-015
  -82.665000000000006          9.4452186550535513E-015
  -82.650000000000006          9.1744594912660307E-015
  -82.635000000000005          8.7431265976016179E-015
  -82.620000000000005          8.1500358220000513E-015
  -82.605000000000004          7.3965517345393576E-015
  -82.590000000000003          6.4866664014999464E-015
  -82.575000000000003          5.4270315726166057E-015
  -82.560000000000002          4.2269523283313976E-015
  -82.545000000000002          2.8983339284762181E-015
  -82.530000000000001          1.4555869445827046E-015
  -82.515000000000001         -8.4509880045880435E-017
  -82.500000000000000         -1.7029873749046750E-015
  -82.484999999999999         -3.3789025180239185E-015
  -82.469999999999999         -5.0895884695070694E-015
  -82.454999999999998         -6.8109381422796784E-015
  -82.439999999999998         -8.5177124956124090E-015
  -82.424999999999997         -1.0183872889673717E-014
  -82.409999999999997         -1.1782929639587644E-014
  -82.394999999999996         -1.3288304545535246E-014
  -82.379999999999995         -1.4673702316701960E-014
  -82.364999999999995         -1.5913480724675556E-014
  -82.349999999999994         -1.6983019062778194E-014
  -82.334999999999994         -1.7859084911332583E-014
  -82.319999999999993         -1.8520180574137408E-014
  -82.305000000000007         -1.8946881891646235E-014
  -82.290000000000006         -1.9122148255026200E-014
  -82.275000000000006         -1.9031622455821344E-014
  -82.260000000000005         -1.8663896654298046E-014
  -82.245000000000005         -1.8010751242736149E-014
  -82.230000000000004         -1.7067366603665778E-014
  -82.215000000000003         -1.5832497598654467E-014
  -82.200000000000003         -1.4308627728303568E-014
  -82.185000000000002         -1.2502072470267807E-014
  -82.170000000000002         -1.0423062288484122E-014
  -82.155000000000001         -8.0857815966872346E-015
  -82.140000000000001         -5.5083717230249626E-015
  -82.125000000000000         -2.7129014756633067E-015
  -82.109999999999999          2.7470781962938336E-016
  -82.094999999999999          3.4247937043149724E-015
  -82.079999999999998          6.7041048412578089E-015
  -82.064999999999998          1.0075996467577304E-014
  -82.049999999999997          1.3500671799037897E-014
  -82.034999999999997          1.6935463244987549E-014
  -82.019999999999996          2.0335175668459611E-014
  -82.004999999999995          2.3652458233636674E-014
  -81.989999999999995          2.6838244015950190E-014
  -81.974999999999994          2.9842231116794515E-014
  -81.960000000000008          3.2613421376481364E-014
  -81.944999999999993          3.5100709909171093E-014
  -81.930000000000007          3.7253515295385467E-014
  -81.915000000000006          3.9022475843090293E-014
  -81.900000000000006          4.0360174647898275E-014
  -81.885000000000005          4.1221901922721543E-014
  -81.870000000000005          4.1566464761269226E-014
  -81.855000000000004          4.1357013842203971E-014
  -81.840000000000003          4.0561870133298469E-014