  -90.000000000000000          0.0000000000000000     
  -89.984999999999999          0.0000000000000000     
  -89.969999999999999          0.0000000000000000     
  -89.954999999999998          0.0000000000000000     
  -89.939999999999998          0.0000000000000000     
  -89.924999999999997          0.0000000000000000     
  -89.909999999999997          0.0000000000000000     
  -89.894999999999996          0.0000000000000000     
  -89.879999999999995          0.0000000000000000     
  -89.864999999999995          0.0000000000000000     
  -89.849999999999994          0.0000000000000000     
  -89.834999999999994          0.0000000000000000     
  -89.819999999999993          0.0000000000000000     
  -89.805000000000007          0.0000000000000000     
  -89.790000000000006          0.0000000000000000     
  -89.775000000000006          0.0000000000000000     
  -89.760000000000005          0.0000000000000000     
  -89.745000000000005          0.0000000000000000     
  -89.730000000000004          0.0000000000000000     
  -89.715000000000003          0.0000000000000000     
  -89.700000000000003          0.0000000000000000     
  -89.685000000000002          0.0000000000000000     
  -89.670000000000002          0.0000000000000000     
  -89.655000000000001          0.0000000000000000     
  -89.640000000000001          0.0000000000000000     
  -89.625000000000000          0.0000000000000000     
  -89.609999999999999          0.0000000000000000     
  -89.594999999999999          0.0000000000000000     
  -89.579999999999998          0.0000000000000000     
  -89.564999999999998          0.0000000000000000     
  -89.549999999999997          0.0000000000000000     
  -89.534999999999997          0.0000000000000000     
  -89.519999999999996          0.0000000000000000     
  -89.504999999999995          0.0000000000000000     
  -89.489999999999995          0.0000000000000000     
  -89.474999999999994          0.0000000000000000     
  -89.459999999999994          0.0000000000000000     
  -89.444999999999993          0.0000000000000000     
  -89.430000000000007          0.0000000000000000     
  -89.415000000000006          0.0000000000000000     
  -89.400000000000006          0.0000000000000000     
  -89.385000000000005          0.0000000000000000     
  -89.370000000000005          0.0000000000000000     
  -89.355000000000004          0.0000000000000000     
  -89.340000000000003          0.0000000000000000     
  -89.325000000000003          0.0000000000000000     
  -89.310000000000002          0.0000000000000000     
  -89.295000000000002          0.0000000000000000     
  -89.280000000000001          0.0000000000000000     
  -89.265000000000001          0.0000000000000000     
  -89.250000000000000          0.0000000000000000     
  -89.234999999999999          0.0000000000000000     
  -89.219999999999999          0.0000000000000000     
  -89.204999999999998          0.0000000000000000     
  -89.189999999999998          0.0000000000000000     
  -89.174999999999997          0.0000000000000000     
  -89.159999999999997          0.0000000000000000     
  -89.144999999999996          0.0000000000000000     
  -89.129999999999995          0.0000000000000000     
  -89.114999999999995          0.0000000000000000     
  -89.099999999999994          0.0000000000000000     
  -89.084999999999994          0.0000000000000000     
  -89.069999999999993          0.0000000000000000     
  -89.055000000000007          0.0000000000000000     
  -89.040000000000006          0.0000000000000000     
  -89.025000000000006          0.0000000000000000     
  -89.010000000000005          0.0000000000000000     
  -88.995000000000005          0.0000000000000000     
  -88.980000000000004          0.0000000000000000     
  -88.965000000000003          0.0000000000000000     
  -88.950000000000003          0.0000000000000000     
  -88.935000000000002          0.0000000000000000     
  -88.920000000000002          0.0000000000000000     
  -88.905000000000001          0.0000000000000000     
  -88.890000000000001          0.0000000000000000     
  -88.875000000000000          0.0000000000000000     
  -88.859999999999999          0.0000000000000000     
  -88.844999999999999          0.0000000000000000     
  -88.829999999999998          0.0000000000000000     
  -88.814999999999998          0.0000000000000000     
  -88.799999999999997          0.0000000000000000     
  -88.784999999999997          0.0000000000000000     
  -88.769999999999996          0.0000000000000000     
  -88.754999999999995          0.0000000000000000     
  -88.739999999999995          0.0000000000000000     
  -88.724999999999994          0.0000000000000000     
  -88.709999999999994          0.0000000000000000     
  -88.694999999999993          0.0000000000000000     
  -88.680000000000007          0.0000000000000000     
  -88.665000000000006          0.0000000000000000     
  -88.650000000000006          0.0000000000000000     
  -88.635000000000005          0.0000000000000000     
  -88.620000000000005          0.0000000000000000     
  -88.605000000000004          0.0000000000000000     
  -88.590000000000003          0.0000000000000000     
  -88.575000000000003          0.0000000000000000     
  -88.560000000000002          0.0000000000000000     
  -88.545000000000002          0.0000000000000000     
  -88.530000000000001          0.0000000000000000     
  -88.515000000000001          0.0000000000000000     
  -88.500000000000000          0.0000000000000000     
  -88.484999999999999          0.0000000000000000     
  -88.469999999999999          0.0000000000000000     
  -88.454999999999998          0.0000000000000000     
  -88.439999999999998          0.0000000000000000     
  -88.424999999999997          0.0000000000000000     
  -88.409999999999997          0.0000000000000000     
  -88.394999999999996          0.0000000000000000     
  -88.379999999999995          0.0000000000000000     
  -88.364999999999995          0.0000000000000000     
  -88.349999999999994          0.0000000000000000     
  -88.334999999999994          0.0000000000000000     
  -88.319999999999993          0.0000000000000000     
  -88.305000000000007          0.0000000000000000     
  -88.290000000000006          0.0000000000000000     
  -88.275000000000006          0.0000000000000000     
  -88.260000000000005          0.0000000000000000     
  -88.245000000000005          0.0000000000000000     
  -88.230000000000004          0.0000000000000000     
  -88.215000000000003          0.0000000000000000     
  -88.200000000000003          0.0000000000000000     
  -88.185000000000002          0.0000000000000000     
  -88.170000000000002          0.0000000000000000     
  -88.155000000000001          0.0000000000000000     
  -88.140000000000001          0.0000000000000000     
  -88.125000000000000          0.0000000000000000     
  -88.109999999999999          0.0000000000000000     
  -88.094999999999999          0.0000000000000000     
  -88.079999999999998          0.0000000000000000     
  -88.064999999999998          0.0000000000000000     
  -88.049999999999997          0.0000000000000000     
  -88.034999999999997          0.0000000000000000     
  -88.019999999999996          0.0000000000000000     
  -88.004999999999995          0.0000000000000000     
  -87.989999999999995          0.0000000000000000     
  -87.974999999999994          0.0000000000000000     
  -87.959999999999994          0.0000000000000000     
  -87.944999999999993          0.0000000000000000     
  -87.930000000000007          0.0000000000000000     
  -87.915000000000006          0.0000000000000000     
  -87.900000000000006          0.0000000000000000     
  -87.885000000000005          0.0000000000000000     
  -87.870000000000005          0.0000000000000000     
  -87.855000000000004          0.0000000000000000     
  -87.840000000000003          0.0000000000000000     
  -87.825000000000003          0.0000000000000000     
  -87.810000000000002          0.0000000000000000     
  -87.795000000000002          0.0000000000000000     
  -87.780000000000001          0.0000000000000000     
  -87.765000000000001          0.0000000000000000     
  -87.750000000000000          0.0000000000000000     
  -87.734999999999999          0.0000000000000000     
  -87.719999999999999          0.0000000000000000     
  -87.704999999999998          0.0000000000000000     
  -87.689999999999998          0.0000000000000000     
  -87.674999999999997          0.0000000000000000     
  -87.659999999999997          0.0000000000000000     
  -87.644999999999996          0.0000000000000000     
  -87.629999999999995          0.0000000000000000     
  -87.614999999999995          0.0000000000000000     
  -87.599999999999994          0.0000000000000000     
  -87.584999999999994          0.0000000000000000     
  -87.569999999999993          0.0000000000000000     
  -87.555000000000007          0.0000000000000000     
  -87.540000000000006          0.0000000000000000     
  -87.525000000000006          0.0000000000000000     
  -87.510000000000005          0.0000000000000000     
  -87.495000000000005          0.0000000000000000     
  -87.480000000000004          0.0000000000000000     
  -87.465000000000003          0.0000000000000000     
  -87.450000000000003          0.0000000000000000     
  -87.435000000000002          0.0000000000000000     
  -87.420000000000002          0.0000000000000000     
  -87.405000000000001          0.0000000000000000     
  -87.390000000000001          0.0000000000000000     
  -87.375000000000000          0.0000000000000000     
  -87.359999999999999          0.0000000000000000     
  -87.344999999999999          0.0000000000000000     
  -87.329999999999998          0.0000000000000000     
  -87.314999999999998          0.0000000000000000     
  -87.299999999999997          0.0000000000000000     
  -87.284999999999997          0.0000000000000000     
  -87.269999999999996          0.0000000000000000     
  -87.254999999999995          0.0000000000000000     
  -87.239999999999995          0.0000000000000000     
  -87.224999999999994          0.0000000000000000     
  -87.209999999999994          0.0000000000000000     
  -87.194999999999993          0.0000000000000000     
  -87.180000000000007          0.0000000000000000     
  -87.165000000000006          0.0000000000000000     
  -87.150000000000006          0.0000000000000000     
  -87.135000000000005          0.0000000000000000     
  -87.120000000000005          0.0000000000000000     
  -87.105000000000004          0.0000000000000000     
  -87.090000000000003          0.0000000000000000     
  -87.075000000000003          0.0000000000000000     
  -87.060000000000002          0.0000000000000000     
  -87.045000000000002          0.0000000000000000     
  -87.030000000000001          0.0000000000000000     
  -87.015000000000001          0.0000000000000000     
  -87.000000000000000          0.0000000000000000     
  -86.984999999999999          0.0000000000000000     
  -86.969999999999999          0.0000000000000000     
  -86.954999999999998          0.0000000000000000     
  -86.939999999999998          0.0000000000000000     
  -86.924999999999997          0.0000000000000000     
  -86.909999999999997          0.0000000000000000     
  -86.894999999999996          0.0000000000000000     
  -86.879999999999995          0.0000000000000000     
  -86.864999999999995          0.0000000000000000     
  -86.849999999999994          0.0000000000000000     
  -86.834999999999994          0.0000000000000000     
  -86.819999999999993          0.0000000000000000     
  -86.805000000000007          0.0000000000000000     
  -86.790000000000006          0.0000000000000000     
  -86.775000000000006          0.0000000000000000     
  -86.760000000000005          0.0000000000000000     
  -86.745000000000005          0.0000000000000000     
  -86.730000000000004          0.0000000000000000     
  -86.715000000000003          0.0000000000000000     
  -86.700000000000003          0.0000000000000000     
  -86.685000000000002          0.0000000000000000     
  -86.670000000000002          0.0000000000000000     
  -86.655000000000001          0.0000000000000000     
  -86.640000000000001          0.0000000000000000     
  -86.625000000000000          0.0000000000000000     
  -86.609999999999999          0.0000000000000000     
  -86.594999999999999          0.0000000000000000     
  -86.579999999999998          0.0000000000000000     
  -86.564999999999998          0.0000000000000000     
  -86.549999999999997          0.0000000000000000     
  -86.534999999999997          0.0000000000000000     
  -86.519999999999996          0.0000000000000000     
  -86.504999999999995          0.0000000000000000     
  -86.489999999999995          0.0000000000000000     
  -86.474999999999994          0.0000000000000000     
  -86.459999999999994          0.0000000000000000     
  -86.444999999999993          0.0000000000000000     
  -86.430000000000007          0.0000000000000000     
  -86.415000000000006          0.0000000000000000     
  -86.400000000000006          0.0000000000000000     
  -86.385000000000005          0.0000000000000000     
  -86.370000000000005          0.0000000000000000     
  -86.355000000000004          0.0000000000000000     
  -86.340000000000003          0.0000000000000000     
  -86.325000000000003          0.0000000000000000     
  -86.310000000000002          0.0000000000000000     
  -86.295000000000002          0.0000000000000000     
  -86.280000000000001          0.0000000000000000     
  -86.265000000000001          0.0000000000000000     
  -86.250000000000000          0.0000000000000000     
  -86.234999999999999          0.0000000000000000     
  -86.219999999999999          0.0000000000000000     
  -86.204999999999998          0.0000000000000000     
  -86.189999999999998          0.0000000000000000     
  -86.174999999999997          0.0000000000000000     
  -86.159999999999997          0.0000000000000000     
  -86.144999999999996          0.0000000000000000     
  -86.129999999999995          0.0000000000000000     
  -86.114999999999995          0.0000000000000000     
  -86.099999999999994          0.0000000000000000     
  -86.084999999999994          0.0000000000000000     
  -86.069999999999993          0.0000000000000000     
  -86.055000000000007          0.0000000000000000     
  -86.040000000000006          0.0000000000000000     
  -86.025000000000006          0.0000000000000000     
  -86.010000000000005          0.0000000000000000     
  -85.995000000000005          0.0000000000000000     
  -85.980000000000004          0.0000000000000000     
  -85.965000000000003          0.0000000000000000     
  -85.950000000000003          0.0000000000000000     
  -85.935000000000002          0.0000000000000000     
  -85.920000000000002          0.0000000000000000     
  -85.905000000000001          0.0000000000000000     
  -85.890000000000001          0.0000000000000000     
  -85.875000000000000          0.0000000000000000     
  -85.859999999999999          0.0000000000000000     
  -85.844999999999999          0.0000000000000000     
  -85.829999999999998          0.0000000000000000     
  -85.814999999999998          0.0000000000000000     
  -85.799999999999997          0.0000000000000000     
  -85.784999999999997          0.0000000000000000     
  -85.769999999999996          0.0000000000000000     
  -85.754999999999995          0.0000000000000000     
  -85.739999999999995          0.0000000000000000     
  -85.724999999999994          0.0000000000000000     
  -85.709999999999994          0.0000000000000000     
  -85.694999999999993          0.0000000000000000     
  -85.680000000000007          0.0000000000000000     
  -85.665000000000006          0.0000000000000000     
  -85.650000000000006          0.0000000000000000     
  -85.635000000000005          0.0000000000000000     
  -85.620000000000005          0.0000000000000000     
  -85.605000000000004          0.0000000000000000     
  -85.590000000000003          0.0000000000000000     
  -85.575000000000003          0.0000000000000000     
  -85.560000000000002          0.0000000000000000     
  -85.545000000000002          0.0000000000000000     
  -85.530000000000001          0.0000000000000000     
  -85.515000000000001          0.0000000000000000     
  -85.500000000000000          0.0000000000000000     
  -85.484999999999999          0.0000000000000000     
  -85.469999999999999          0.0000000000000000     
  -85.454999999999998          0.0000000000000000     
  -85.439999999999998          0.0000000000000000     
  -85.424999999999997          0.0000000000000000     
  -85.409999999999997          0.0000000000000000     
  -85.394999999999996          0.0000000000000000     
  -85.379999999999995          0.0000000000000000     
  -85.364999999999995          0.0000000000000000     
  -85.349999999999994          0.0000000000000000     
  -85.334999999999994          0.0000000000000000     
  -85.319999999999993          0.0000000000000000     
  -85.305000000000007          0.0000000000000000     
  -85.290000000000006          0.0000000000000000     
  -85.275000000000006          0.0000000000000000     
  -85.260000000000005          0.0000000000000000     
  -85.245000000000005          0.0000000000000000     
  -85.230000000000004          0.0000000000000000     
  -85.215000000000003          0.0000000000000000     
  -85.200000000000003          0.0000000000000000     
  -85.185000000000002          0.0000000000000000     
  -85.170000000000002          0.0000000000000000     
  -85.155000000000001          0.0000000000000000     
  -85.140000000000001          0.0000000000000000     
  -85.125000000000000          0.0000000000000000     
  -85.109999999999999          0.0000000000000000     
  -85.094999999999999          0.0000000000000000     
  -85.079999999999998          0.0000000000000000     
  -85.064999999999998          0.0000000000000000     
  -85.049999999999997          0.0000000000000000     
  -85.034999999999997          0.0000000000000000     
  -85.019999999999996          0.0000000000000000     
  -85.004999999999995          0.0000000000000000     
  -84.989999999999995          0.0000000000000000     
  -84.974999999999994          0.0000000000000000     
  -84.959999999999994          0.0000000000000000     
  -84.944999999999993          0.0000000000000000     
  -84.930000000000007          0.0000000000000000     
  -84.915000000000006          0.0000000000000000     
  -84.900000000000006          0.0000000000000000     
  -84.885000000000005          0.0000000000000000     
  -84.870000000000005          0.0000000000000000     
  -84.855000000000004          0.0000000000000000     
  -84.840000000000003          0.0000000000000000     
  -84.825000000000003          0.0000000000000000     
  -84.810000000000002          0.0000000000000000     
  -84.795000000000002          0.0000000000000000     
  -84.780000000000001          0.0000000000000000     
  -84.765000000000001          0.0000000000000000     
  -84.750000000000000          0.0000000000000000     
  -84.734999999999999          0.0000000000000000     
  -84.719999999999999          0.0000000000000000     
  -84.704999999999998          0.0000000000000000     
  -84.689999999999998          0.0000000000000000     
  -84.674999999999997          0.0000000000000000     
  -84.659999999999997          0.0000000000000000     
  -84.644999999999996          0.0000000000000000     
  -84.629999999999995          0.0000000000000000     
  -84.614999999999995          0.0000000000000000     
  -84.599999999999994          0.0000000000000000     
  -84.584999999999994          0.0000000000000000     
  -84.569999999999993          0.0000000000000000     
  -84.555000000000007          0.0000000000000000     
  -84.540000000000006          0.0000000000000000     
  -84.525000000000006          0.0000000000000000     
  -84.510000000000005          0.0000000000000000     
  -84.495000000000005          0.0000000000000000     
  -84.480000000000004          0.0000000000000000     
  -84.465000000000003          0.0000000000000000     
  -84.450000000000003          0.0000000000000000     
  -84.435000000000002          0.0000000000000000     
  -84.420000000000002          0.0000000000000000     
  -84.405000000000001          0.0000000000000000     
  -84.390000000000001          0.0000000000000000     
  -84.375000000000000          0.0000000000000000     
  -84.359999999999999          0.0000000000000000     
  -84.344999999999999          0.0000000000000000     
  -84.329999999999998          0.0000000000000000     
  -84.314999999999998          0.0000000000000000     
  -84.299999999999997          0.0000000000000000     
  -84.284999999999997          0.0000000000000000     
  -84.269999999999996          0.0000000000000000     
  -84.254999999999995          0.0000000000000000     
  -84.239999999999995          0.0000000000000000     
  -84.224999999999994          0.0000000000000000     
  -84.209999999999994          0.0000000000000000     
  -84.194999999999993          0.0000000000000000     
  -84.180000000000007          0.0000000000000000     
  -84.165000000000006          0.0000000000000000     
  -84.150000000000006          0.0000000000000000     
  -84.135000000000005          0.0000000000000000     
  -84.120000000000005          0.0000000000000000     
  -84.105000000000004          0.0000000000000000     
  -84.090000000000003          0.0000000000000000     
  -84.075000000000003          0.0000000000000000     
  -84.060000000000002          0.0000000000000000     
  -84.045000000000002          0.0000000000000000     
  -84.030000000000001          0.0000000000000000     
  -84.015000000000001          0.0000000000000000     
  -84.000000000000000          0.0000000000000000     
  -83.984999999999999          0.0000000000000000     
  -83.969999999999999          0.0000000000000000     
  -83.954999999999998          0.0000000000000000     
  -83.939999999999998          0.0000000000000000     
  -83.924999999999997          0.0000000000000000     
  -83.909999999999997          0.0000000000000000     
  -83.894999999999996          0.0000000000000000     
  -83.879999999999995          0.0000000000000000     
  -83.864999999999995          0.0000000000000000     
  -83.849999999999994          0.0000000000000000     
  -83.834999999999994          0.0000000000000000     
  -83.819999999999993          0.0000000000000000     
  -83.805000000000007          0.0000000000000000     
  -83.790000000000006          0.0000000000000000     
  -83.775000000000006          0.0000000000000000     
  -83.760000000000005          0.0000000000000000     
  -83.745000000000005          0.0000000000000000     
  -83.730000000000004          0.0000000000000000     
  -83.715000000000003          0.0000000000000000     
  -83.700000000000003          0.0000000000000000     
  -83.685000000000002          0.0000000000000000     
  -83.670000000000002          0.0000000000000000     
  -83.655000000000001          0.0000000000000000     
  -83.640000000000001          0.0000000000000000     
  -83.625000000000000          0.0000000000000000     
  -83.609999999999999          0.0000000000000000     
  -83.594999999999999          0.0000000000000000     
  -83.579999999999998          0.0000000000000000     
  -83.564999999999998          0.0000000000000000     
  -83.549999999999997          0.0000000000000000     
  -83.534999999999997          0.0000000000000000     
  -83.519999999999996          0.0000000000000000     
  -83.504999999999995          0.0000000000000000     
  -83.489999999999995          0.0000000000000000     
  -83.474999999999994          0.0000000000000000     
  -83.459999999999994          0.0000000000000000     
  -83.444999999999993          0.0000000000000000     
  -83.430000000000007          0.0000000000000000     
  -83.415000000000006          0.0000000000000000     
  -83.400000000000006          0.0000000000000000     
  -83.385000000000005          0.0000000000000000     
  -83.370000000000005          0.0000000000000000     
  -83.355000000000004          0.0000000000000000     
  -83.340000000000003          0.0000000000000000     
  -83.325000000000003          0.0000000000000000     
  -83.310000000000002          0.0000000000000000     
  -83.295000000000002          0.0000000000000000     
  -83.280000000000001          0.0000000000000000     
  -83.265000000000001          0.0000000000000000     
  -83.250000000000000          0.0000000000000000     
  -83.234999999999999          0.0000000000000000     
  -83.219999999999999          0.0000000000000000     
  -83.204999999999998          0.0000000000000000     
  -83.189999999999998          0.0000000000000000     
  -83.174999999999997          0.0000000000000000     
  -83.159999999999997          0.0000000000000000     
  -83.144999999999996          0.0000000000000000     
  -83.129999999999995          0.0000000000000000     
  -83.114999999999995          0.0000000000000000     
  -83.099999999999994          0.0000000000000000     
  -83.084999999999994         -1.3000472233954881E-038
  -83.069999999999993         -3.3391552316783781E-038
  -83.055000000000007         -6.2598109954279923E-038
  -83.040000000000006         -1.0180589167709029E-037
  -83.025000000000006         -1.5148543108875972E-037
  -83.010000000000005         -2.1188832292076696E-037
  -82.995000000000005         -2.8301188789044821E-037
  -82.980000000000004         -3.6511815760024451E-037
  -82.965000000000003         -4.5840512991797108E-037
  -82.950000000000003         -5.6243510646569914E-037
  -82.935000000000002         -6.7641223939879392E-037
  -82.920000000000002         -7.9916764401102966E-037
  -82.905000000000001         -9.2777240472498862E-037
  -82.890000000000001         -1.0601998179665240E-036
  -82.875000000000000         -1.1968669998417205E-036
  -82.859999999999999         -1.3730805732006468E-036
  -82.844999999999999         -1.5881144636518038E-036
  -82.829999999999998         -1.8427161798480010E-036
  -82.814999999999998         -2.1367438431223223E-036
  -82.799999999999997         -2.4363576874363789E-036
  -82.784999999999997         -2.7444907089487167E-036
  -82.769999999999996         -3.1058176479485366E-036
  -82.754999999999995         -3.5114263358858344E-036
  -82.739999999999995         -3.8504417334743482E-036
  -82.724999999999994         -4.1111702404474295E-036
  -82.709999999999994         -4.3046353449356989E-036
  -82.694999999999993         -4.3767692573085461E-036
  -82.680000000000007         -4.3144728637292168E-036
  -82.665000000000006         -4.1359019700416647E-036
  -82.650000000000006         -3.7913301662031856E-036
  -82.635000000000005         -3.2899076397157398E-036
  -82.620000000000005         -2.7116198791412760E-036
  -82.605000000000004         -2.0604845080705029E-036
  -82.590000000000003         -1.3468218094334798E-036
  -82.575000000000003         -5.0994816086905051E-037
  -82.560000000000002          5.3813273472093299E-037
  -82.545000000000002          1.7990616745239302E-036
  -82.530000000000001          3.3072512753905461E-036
  -82.515000000000001          5.0391829958850191E-036
  -82.500000000000000          7.0119464891380936E-036
  -82.484999999999999          9.1983595244842247E-036
  -82.469999999999999          1.1575733712118693E-035
  -82.454999999999998          1.4135461626671127E-035
  -82.439999999999998          1.6702592343171671E-035
  -82.424999999999997          1.9236187319348647E-035
  -82.409999999999997          2.1657646849927833E-035
  -82.394999999999996          2.3862876834943774E-035
  -82.379999999999995          2.5781736479276176E-035
  -82.364999999999995          2.7376434041326399E-035
  -82.349999999999994          2.8574528533781317E-035
  -82.334999999999994          2.9303234586217213E-035
  -82.319999999999993          2.9492734262679973E-035
  -82.305000000000007          2.9068345215778366E-035
  -82.290000000000006          2.7979388600929455E-035
  -82.275000000000006          2.6197556126442541E-035
  -82.260000000000005          2.3638052060911992E-035
  -82.245000000000005          2.0231233529798247E-035
  -82.230000000000004          1.5924843265928154E-035
  -82.215000000000003          1.0733245632337487E-035
  -82.200000000000003          4.7517303595299624E-036
  -82.185000000000002         -2.0927885406750935E-036
  -82.170000000000002         -9.8634802578029173E-036
  -82.155000000000001         -1.8368987598987991E-035
  -82.140000000000001         -2.7635140373721970E-035
  -82.125000000000000         -3.7704822171386568E-035
  -82.109999999999999         -4.8507755878546883E-035
  -82.094999999999999         -5.9886271427736662E-035
  -82.079999999999998         -7.1684601468175678E-035
  -82.064999999999998         -8.3750304815960175E-035
  -82.049999999999997         -9.5901897311526434E-035
  -82.034999999999997         -1.0791298723768948E-034
  -82.019999999999996         -1.1953131396594032E-034
  -82.004999999999995         -1.3047662426059732E-034
  -81.989999999999995         -1.4044048860781388E-034
  -81.974999999999994         -1.4910232076993945E-034
  -81.960000000000008         -1.5612819540350657E-034
  -81.944999999999993         -1.6116088390789766E-034
  -81.930000000000007         -1.6383874957867959E-034
  -81.915000000000006         -1.6375040383137560E-034
  -81.900000000000006         -1.6049244776967471E-034
  -81.885000000000005         -1.5360065296049825E-034
  -81.870000000000005         -1.4275009393900226E-034
  -81.855000000000004         -1.2758253191411141E-034
  -81.840000000000003         -1.0775567303277084E-034