  -90.000000000000000          0.0000000000000000     
  -89.984999999999999          0.0000000000000000     
  -89.969999999999999          0.0000000000000000     
  -89.954999999999998          0.0000000000000000     
  -89.939999999999998          0.0000000000000000     
  -89.924999999999997          0.0000000000000000     
  -89.909999999999997          0.0000000000000000     
  -89.894999999999996          0.0000000000000000     
  -89.879999999999995          0.0000000000000000     
  -89.864999999999995          0.0000000000000000     
  -89.849999999999994          0.0000000000000000     
  -89.834999999999994          0.0000000000000000     
  -89.819999999999993          0.0000000000000000     
  -89.805000000000007          0.0000000000000000     
  -89.790000000000006          0.0000000000000000     
  -89.775000000000006          0.0000000000000000     
  -89.760000000000005          0.0000000000000000     
  -89.745000000000005          0.0000000000000000     
  -89.730000000000004          0.0000000000000000     
  -89.715000000000003          0.0000000000000000     
  -89.700000000000003          0.0000000000000000     
  -89.685000000000002          0.0000000000000000     
  -89.670000000000002          0.0000000000000000     
  -89.655000000000001          0.0000000000000000     
  -89.640000000000001          0.0000000000000000     
  -89.625000000000000          0.0000000000000000     
  -89.609999999999999          0.0000000000000000     
  -89.594999999999999          0.0000000000000000     
  -89.579999999999998          0.0000000000000000     
  -89.564999999999998          0.0000000000000000     
  -89.549999999999997          0.0000000000000000     
  -89.534999999999997          0.0000000000000000     
  -89.519999999999996          0.0000000000000000     
  -89.504999999999995          0.0000000000000000     
  -89.489999999999995          0.0000000000000000     
  -89.474999999999994          0.0000000000000000     
  -89.459999999999994          0.0000000000000000     
  -89.444999999999993          0.0000000000000000     
  -89.430000000000007          0.0000000000000000     
  -89.415000000000006          0.0000000000000000     
  -89.400000000000006          0.0000000000000000     
  -89.385000000000005          0.0000000000000000     
  -89.370000000000005          0.0000000000000000     
  -89.355000000000004          0.0000000000000000     
  -89.340000000000003          0.0000000000000000     
  -89.325000000000003          0.0000000000000000     
  -89.310000000000002          0.0000000000000000     
  -89.295000000000002          0.0000000000000000     
  -89.280000000000001          0.0000000000000000     
  -89.265000000000001          0.0000000000000000     
  -89.250000000000000          0.0000000000000000     
  -89.234999999999999          0.0000000000000000     
  -89.219999999999999          0.0000000000000000     
  -89.204999999999998          0.0000000000000000     
  -89.189999999999998          0.0000000000000000     
  -89.174999999999997          0.0000000000000000     
  -89.159999999999997          0.0000000000000000     
  -89.144999999999996          0.0000000000000000     
  -89.129999999999995          0.0000000000000000     
  -89.114999999999995          0.0000000000000000     
  -89.099999999999994          0.0000000000000000     
  -89.084999999999994          0.0000000000000000     
  -89.069999999999993          0.0000000000000000     
  -89.055000000000007          0.0000000000000000     
  -89.040000000000006          0.0000000000000000     
  -89.025000000000006          0.0000000000000000     
  -89.010000000000005          0.0000000000000000     
  -88.995000000000005          0.0000000000000000     
  -88.980000000000004          0.0000000000000000     
  -88.965000000000003          0.0000000000000000     
  -88.950000000000003          0.0000000000000000     
  -88.935000000000002          0.0000000000000000     
  -88.920000000000002          0.0000000000000000     
  -88.905000000000001          0.0000000000000000     
  -88.890000000000001          0.0000000000000000     
  -88.875000000000000          0.0000000000000000     
  -88.859999999999999          0.0000000000000000     
  -88.844999999999999          0.0000000000000000     
  -88.829999999999998          0.0000000000000000     
  -88.814999999999998          0.0000000000000000     
  -88.799999999999997          0.0000000000000000     
  -88.784999999999997          0.0000000000000000     
  -88.769999999999996          0.0000000000000000     
  -88.754999999999995          0.0000000000000000     
  -88.739999999999995          0.0000000000000000     
  -88.724999999999994          0.0000000000000000     
  -88.709999999999994          0.0000000000000000     
  -88.694999999999993          0.0000000000000000     
  -88.680000000000007          0.0000000000000000     
  -88.665000000000006          0.0000000000000000     
  -88.650000000000006          0.0000000000000000     
  -88.635000000000005          0.0000000000000000     
  -88.620000000000005          0.0000000000000000     
  -88.605000000000004          0.0000000000000000     
  -88.590000000000003          0.0000000000000000     
  -88.575000000000003          0.0000000000000000     
  -88.560000000000002          0.0000000000000000     
  -88.545000000000002          0.0000000000000000     
  -88.530000000000001          0.0000000000000000     
  -88.515000000000001          0.0000000000000000     
  -88.500000000000000          0.0000000000000000     
  -88.484999999999999          0.0000000000000000     
  -88.469999999999999          0.0000000000000000     
  -88.454999999999998          0.0000000000000000     
  -88.439999999999998          0.0000000000000000     
  -88.424999999999997          0.0000000000000000     
  -88.409999999999997          0.0000000000000000     
  -88.394999999999996          0.0000000000000000     
  -88.379999999999995          0.0000000000000000     
  -88.364999999999995          0.0000000000000000     
  -88.349999999999994          0.0000000000000000     
  -88.334999999999994          0.0000000000000000     
  -88.319999999999993          0.0000000000000000     
  -88.305000000000007          0.0000000000000000     
  -88.290000000000006          0.0000000000000000     
  -88.275000000000006          0.0000000000000000     
  -88.260000000000005          0.0000000000000000     
  -88.245000000000005          0.0000000000000000     
  -88.230000000000004          0.0000000000000000     
  -88.215000000000003          0.0000000000000000     
  -88.200000000000003          0.0000000000000000     
  -88.185000000000002          0.0000000000000000     
  -88.170000000000002          0.0000000000000000     
  -88.155000000000001          0.0000000000000000     
  -88.140000000000001          0.0000000000000000     
  -88.125000000000000          0.0000000000000000     
  -88.109999999999999          0.0000000000000000     
  -88.094999999999999          0.0000000000000000     
  -88.079999999999998          0.0000000000000000     
  -88.064999999999998          0.0000000000000000     
  -88.049999999999997          0.0000000000000000     
  -88.034999999999997          0.0000000000000000     
  -88.019999999999996          0.0000000000000000     
  -88.004999999999995          0.0000000000000000     
  -87.989999999999995          0.0000000000000000     
  -87.974999999999994          0.0000000000000000     
  -87.959999999999994          0.0000000000000000     
  -87.944999999999993          0.0000000000000000     
  -87.930000000000007          0.0000000000000000     
  -87.915000000000006          0.0000000000000000     
  -87.900000000000006          0.0000000000000000     
  -87.885000000000005          0.0000000000000000     
  -87.870000000000005          0.0000000000000000     
  -87.855000000000004          0.0000000000000000     
  -87.840000000000003          0.0000000000000000     
  -87.825000000000003          0.0000000000000000     
  -87.810000000000002          0.0000000000000000     
  -87.795000000000002          0.0000000000000000     
  -87.780000000000001          0.0000000000000000     
  -87.765000000000001          0.0000000000000000     
  -87.750000000000000          0.0000000000000000     
  -87.734999999999999          0.0000000000000000     
  -87.719999999999999          0.0000000000000000     
  -87.704999999999998          0.0000000000000000     
  -87.689999999999998          0.0000000000000000     
  -87.674999999999997          0.0000000000000000     
  -87.659999999999997          0.0000000000000000     
  -87.644999999999996          0.0000000000000000     
  -87.629999999999995          0.0000000000000000     
  -87.614999999999995          0.0000000000000000     
  -87.599999999999994          0.0000000000000000     
  -87.584999999999994          0.0000000000000000     
  -87.569999999999993          0.0000000000000000     
  -87.555000000000007          0.0000000000000000     
  -87.540000000000006          0.0000000000000000     
  -87.525000000000006          0.0000000000000000     
  -87.510000000000005          0.0000000000000000     
  -87.495000000000005          0.0000000000000000     
  -87.480000000000004          0.0000000000000000     
  -87.465000000000003          0.0000000000000000     
  -87.450000000000003          0.0000000000000000     
  -87.435000000000002          0.0000000000000000     
  -87.420000000000002          0.0000000000000000     
  -87.405000000000001          0.0000000000000000     
  -87.390000000000001          0.0000000000000000     
  -87.375000000000000          0.0000000000000000     
  -87.359999999999999          0.0000000000000000     
  -87.344999999999999          0.0000000000000000     
  -87.329999999999998          0.0000000000000000     
  -87.314999999999998          0.0000000000000000     
  -87.299999999999997          0.0000000000000000     
  -87.284999999999997          0.0000000000000000     
  -87.269999999999996          0.0000000000000000     
  -87.254999999999995          0.0000000000000000     
  -87.239999999999995          0.0000000000000000     
  -87.224999999999994          0.0000000000000000     
  -87.209999999999994          0.0000000000000000     
  -87.194999999999993          0.0000000000000000     
  -87.180000000000007          0.0000000000000000     
  -87.165000000000006          0.0000000000000000     
  -87.150000000000006          0.0000000000000000     
  -87.135000000000005          0.0000000000000000     
  -87.120000000000005          0.0000000000000000     
  -87.105000000000004          0.0000000000000000     
  -87.090000000000003          0.0000000000000000     
  -87.075000000000003          0.0000000000000000     
  -87.060000000000002          0.0000000000000000     
  -87.045000000000002          0.0000000000000000     
  -87.030000000000001          0.0000000000000000     
  -87.015000000000001          0.0000000000000000     
  -87.000000000000000          0.0000000000000000     
  -86.984999999999999          0.0000000000000000     
  -86.969999999999999          0.0000000000000000     
  -86.954999999999998          0.0000000000000000     
  -86.939999999999998          0.0000000000000000     
  -86.924999999999997          0.0000000000000000     
  -86.909999999999997          0.0000000000000000     
  -86.894999999999996          0.0000000000000000     
  -86.879999999999995          0.0000000000000000     
  -86.864999999999995          0.0000000000000000     
  -86.849999999999994          0.0000000000000000     
  -86.834999999999994          0.0000000000000000     
  -86.819999999999993          0.0000000000000000     
  -86.805000000000007          0.0000000000000000     
  -86.790000000000006          0.0000000000000000     
  -86.775000000000006          0.0000000000000000     
  -86.760000000000005          0.0000000000000000     
  -86.745000000000005          0.0000000000000000     
  -86.730000000000004          0.0000000000000000     
  -86.715000000000003          0.0000000000000000     
  -86.700000000000003          0.0000000000000000     
  -86.685000000000002          0.0000000000000000     
  -86.670000000000002          0.0000000000000000     
  -86.655000000000001          0.0000000000000000     
  -86.640000000000001          0.0000000000000000     
  -86.625000000000000          0.0000000000000000     
  -86.609999999999999          0.0000000000000000     
  -86.594999999999999          0.0000000000000000     
  -86.579999999999998          0.0000000000000000     
  -86.564999999999998          0.0000000000000000     
  -86.549999999999997          0.0000000000000000     
  -86.534999999999997          0.0000000000000000     
  -86.519999999999996          0.0000000000000000     
  -86.504999999999995          0.0000000000000000     
  -86.489999999999995          0.0000000000000000     
  -86.474999999999994          0.0000000000000000     
  -86.459999999999994          0.0000000000000000     
  -86.444999999999993          0.0000000000000000     
  -86.430000000000007          0.0000000000000000     
  -86.415000000000006          0.0000000000000000     
  -86.400000000000006          0.0000000000000000     
  -86.385000000000005          0.0000000000000000     
  -86.370000000000005          0.0000000000000000     
  -86.355000000000004          0.0000000000000000     
  -86.340000000000003          0.0000000000000000     
  -86.325000000000003          0.0000000000000000     
  -86.310000000000002          0.0000000000000000     
  -86.295000000000002          0.0000000000000000     
  -86.280000000000001          0.0000000000000000     
  -86.265000000000001          0.0000000000000000     
  -86.250000000000000          0.0000000000000000     
  -86.234999999999999          0.0000000000000000     
  -86.219999999999999          0.0000000000000000     
  -86.204999999999998          0.0000000000000000     
  -86.189999999999998          0.0000000000000000     
  -86.174999999999997          0.0000000000000000     
  -86.159999999999997          0.0000000000000000     
  -86.144999999999996          0.0000000000000000     
  -86.129999999999995          0.0000000000000000     
  -86.114999999999995          0.0000000000000000     
  -86.099999999999994          0.0000000000000000     
  -86.084999999999994          0.0000000000000000     
  -86.069999999999993          0.0000000000000000     
  -86.055000000000007          0.0000000000000000     
  -86.040000000000006          0.0000000000000000     
  -86.025000000000006          0.0000000000000000     
  -86.010000000000005          0.0000000000000000     
  -85.995000000000005          0.0000000000000000     
  -85.980000000000004          0.0000000000000000     
  -85.965000000000003          0.0000000000000000     
  -85.950000000000003          0.0000000000000000     
  -85.935000000000002          0.0000000000000000     
  -85.920000000000002          0.0000000000000000     
  -85.905000000000001          0.0000000000000000     
  -85.890000000000001          0.0000000000000000     
  -85.875000000000000          0.0000000000000000     
  -85.859999999999999          0.0000000000000000     
  -85.844999999999999          0.0000000000000000     
  -85.829999999999998          0.0000000000000000     
  -85.814999999999998          0.0000000000000000     
  -85.799999999999997          0.0000000000000000     
  -85.784999999999997          0.0000000000000000     
  -85.769999999999996          0.0000000000000000     
  -85.754999999999995          0.0000000000000000     
  -85.739999999999995          0.0000000000000000     
  -85.724999999999994          0.0000000000000000     
  -85.709999999999994          0.0000000000000000     
  -85.694999999999993          0.0000000000000000     
  -85.680000000000007          0.0000000000000000     
  -85.665000000000006          0.0000000000000000     
  -85.650000000000006          0.0000000000000000     
  -85.635000000000005          0.0000000000000000     
  -85.620000000000005          0.0000000000000000     
  -85.605000000000004          0.0000000000000000     
  -85.590000000000003          0.0000000000000000     
  -85.575000000000003          0.0000000000000000     
  -85.560000000000002          0.0000000000000000     
  -85.545000000000002          0.0000000000000000     
  -85.530000000000001          0.0000000000000000     
  -85.515000000000001          0.0000000000000000     
  -85.500000000000000          0.0000000000000000     
  -85.484999999999999          0.0000000000000000     
  -85.469999999999999          0.0000000000000000     
  -85.454999999999998          0.0000000000000000     
  -85.439999999999998          0.0000000000000000     
  -85.424999999999997          0.0000000000000000     
  -85.409999999999997          0.0000000000000000     
  -85.394999999999996          0.0000000000000000     
  -85.379999999999995          0.0000000000000000     
  -85.364999999999995          0.0000000000000000     
  -85.349999999999994          0.0000000000000000     
  -85.334999999999994          0.0000000000000000     
  -85.319999999999993          0.0000000000000000     
  -85.305000000000007          0.0000000000000000     
  -85.290000000000006          0.0000000000000000     
  -85.275000000000006          0.0000000000000000     
  -85.260000000000005          0.0000000000000000     
  -85.245000000000005          0.0000000000000000     
  -85.230000000000004          0.0000000000000000     
  -85.215000000000003          0.0000000000000000     
  -85.200000000000003          0.0000000000000000     
  -85.185000000000002          0.0000000000000000     
  -85.170000000000002          0.0000000000000000     
  -85.155000000000001          0.0000000000000000     
  -85.140000000000001          0.0000000000000000     
  -85.125000000000000          0.0000000000000000     
  -85.109999999999999          0.0000000000000000     
  -85.094999999999999          0.0000000000000000     
  -85.079999999999998          0.0000000000000000     
  -85.064999999999998          0.0000000000000000     
  -85.049999999999997          0.0000000000000000     
  -85.034999999999997          0.0000000000000000     
  -85.019999999999996          0.0000000000000000     
  -85.004999999999995          0.0000000000000000     
  -84.989999999999995          0.0000000000000000     
  -84.974999999999994         -1.4082018210794668E-038
  -84.959999999999994         -3.1234376645220585E-038
  -84.944999999999993         -5.1595439513645183E-038
  -84.930000000000007         -7.5260831423273987E-038
  -84.915000000000006         -1.0228649220880284E-037
  -84.900000000000006         -1.3268553241866398E-037
  -84.885000000000005         -1.6642409107676544E-037
  -84.870000000000005         -2.0341710376112886E-037
  -84.855000000000004         -2.4350692999971155E-037
  -84.840000000000003         -2.8644197506103479E-037
  -84.825000000000003         -3.3187133138885619E-037
  -84.810000000000002         -3.7934494675798550E-037
  -84.795000000000002         -4.2771615545064728E-037
  -84.780000000000001         -4.7608736414330907E-037
  -84.765000000000001         -5.2370689391893159E-037
  -84.750000000000000         -5.6965567235112120E-037
  -84.734999999999999         -6.1251867946099042E-037
  -84.719999999999999         -6.5033598074362056E-037
  -84.704999999999998         -6.8163197528491444E-037
  -84.689999999999998         -7.0483850920980315E-037
  -84.674999999999997         -7.1830523408049436E-037
  -84.659999999999997         -7.1830523408049436E-037
  -84.644999999999996         -7.1830523408049436E-037
  -84.629999999999995         -6.9211184929447887E-037
  -84.614999999999995         -6.4920072720053860E-037
  -84.599999999999994         -5.8791143001193805E-037
  -84.584999999999994         -5.0669338174154483E-037
  -84.569999999999993         -4.0413227987528518E-037
  -84.555000000000007         -2.7898099120068545E-037
  -84.540000000000006         -1.1816525531055479E-037
  -84.525000000000006          6.7374850554276502E-038
  -84.510000000000005          2.7798824410623146E-037
  -84.495000000000005          5.1367323818195903E-037
  -84.480000000000004          7.7323729976234951E-037
  -84.465000000000003          1.0566710569632735E-036
  -84.450000000000003          1.3636168535750844E-036
  -84.435000000000002          1.6789573472399936E-036
  -84.420000000000002          2.0094845979834203E-036
  -84.405000000000001          2.3517180046277359E-036
  -84.390000000000001          2.6947474384828898E-036
  -84.375000000000000          3.0257618478348421E-036
  -84.359999999999999          3.3388853752253122E-036
  -84.344999999999999          3.6138960955129955E-036
  -84.329999999999998          3.8518827615527336E-036
  -84.314999999999998          4.0431635444155889E-036
  -84.299999999999997          4.1774087444458218E-036
  -84.284999999999997          4.2437537919690537E-036
  -84.269999999999996          4.2765336831113536E-036
  -84.254999999999995          4.2781469027450352E-036
  -84.239999999999995          4.2161633238244941E-036
  -84.224999999999994          4.0851442043292175E-036
  -84.209999999999994          3.8892174780650257E-036
  -84.194999999999993          3.6217153857854788E-036
  -84.180000000000007          3.2528645726502307E-036
  -84.165000000000006          2.7950438178230462E-036
  -84.150000000000006          2.2478172614295818E-036
  -84.135000000000005          1.5852603886227688E-036
  -84.120000000000005          8.0090238424753750E-037
  -84.105000000000004         -1.0394365656232566E-037
  -84.090000000000003         -1.1257933210973692E-036
  -84.075000000000003         -2.4746326415870698E-036
  -84.060000000000002         -4.1754773291672491E-036
  -84.045000000000002         -6.2715816334790156E-036
  -84.030000000000001         -8.7337623144913197E-036
  -84.015000000000001         -1.1552824343151342E-035
  -84.000000000000000         -1.4661848341352458E-035
  -83.984999999999999         -1.7691151236775485E-035
  -83.969999999999999         -2.0382561208311087E-035
  -83.954999999999998         -2.2661427477019834E-035
  -83.939999999999998         -2.4553057896741392E-035
  -83.924999999999997         -2.6248174703981123E-035
  -83.909999999999997         -2.7726674534658193E-035
  -83.894999999999996         -2.8900607682045795E-035
  -83.879999999999995         -2.9766627890252672E-035
  -83.864999999999995         -3.0282229673853948E-035
  -83.849999999999994         -3.0388078692753798E-035
  -83.834999999999994         -3.0030907489321331E-035
  -83.819999999999993         -2.9166195936934705E-035
  -83.805000000000007         -2.7647948555576755E-035
  -83.790000000000006         -2.5265862059045680E-035
  -83.775000000000006         -2.2004021642843227E-035
  -83.760000000000005         -1.8056581895143662E-035
  -83.745000000000005         -1.3241411503121278E-035
  -83.730000000000004         -7.4310980428994401E-036
  -83.715000000000003         -3.5236257488461656E-037
  -83.700000000000003          7.8057718004629558E-036
  -83.685000000000002          1.7035841834784609E-035
  -83.670000000000002          2.7286880083276083E-035
  -83.655000000000001          3.8499638301619198E-035
  -83.640000000000001          5.0766346591619499E-035
  -83.625000000000000          6.4027920290936338E-035
  -83.609999999999999          7.8182640108137721E-035
  -83.594999999999999          9.3062929221609353E-035
  -83.579999999999998          1.0847887756501502E-034
  -83.564999999999998          1.2416933942559245E-034
  -83.549999999999997          1.3985980128616988E-034
  -83.534999999999997          1.5523141030408676E-034
  -83.519999999999996          1.6989261436203649E-034
  -83.504999999999995          1.8341624064964016E-034
  -83.489999999999995          1.9531828166383409E-034
  -83.474999999999994          2.0511127459101168E-034
  -83.459999999999994          2.1226505311185284E-034
  -83.444999999999993          2.1623165777965688E-034
  -83.430000000000007          2.1644666763503678E-034
  -83.415000000000006          2.1234345766669773E-034
  -83.400000000000006          2.0336791544969646E-034
  -83.385000000000005          1.8898218344190965E-034
  -83.370000000000005          1.6866750588441485E-034
  -83.355000000000004          1.4185516850837965E-034
  -83.340000000000003          1.0829824862350927E-034
  -83.325000000000003          6.7733298889918967E-035
  -83.310000000000002          1.9874570291453903E-035
  -83.295000000000002         -3.5373428868734705E-035
  -83.280000000000001         -9.8046744022888868E-035
  -83.265000000000001         -1.6806488135862611E-034
  -83.250000000000000         -2.4508474059244091E-034
  -83.234999999999999         -3.2865256253781665E-034
  -83.219999999999999         -4.1812072327584716E-034
  -83.204999999999998         -5.1264075465752877E-034
  -83.189999999999998         -6.1114580372399410E-034
  -83.174999999999997         -7.1234406646853675E-034
  -83.159999999999997         -8.1471915517859598E-034
  -83.144999999999996         -9.1646810947585003E-034
  -83.129999999999995         -1.0156194049287791E-033
  -83.114999999999995         -1.1098865213540416E-033
  -83.099999999999994         -1.1967507784340085E-033
  -83.084999999999994         -1.2734800701579794E-033
  -83.069999999999993         -1.3371322627355408E-033
  -83.055000000000007         -1.3845875206912135E-033
  -83.040000000000006         -1.4125698882060496E-033
  -83.025000000000006         -1.4177043189607467E-033
  -83.010000000000005         -1.3965625020482310E-033
  -82.995000000000005         -1.3457190652973053E-033
  -82.980000000000004         -1.2618220130982032E-033
  -82.965000000000003         -1.1416640825831029E-033
  -82.950000000000003         -9.8226410987572362E-034
  -82.935000000000002         -7.8093829443634434E-034
  -82.920000000000002         -5.3544401344878686E-034
  -82.905000000000001         -2.4403074460303565E-034
  -82.890000000000001          9.4453060346108396E-035
  -82.875000000000000          4.8043023498183070E-034
  -82.859999999999999          9.1351771049078224E-034
  -82.844999999999999          1.3924078642020434E-033
  -82.829999999999998          1.9147577889376316E-033
  -82.814999999999998          2.4771014294015518E-033
  -82.799999999999997          3.0747519610473810E-033
  -82.784999999999997          3.7017173014218026E-033
  -82.769999999999996          4.3506236111963068E-033
  -82.754999999999995          5.0126565194496497E-033
  -82.739999999999995          5.6775120835129045E-033
  -82.724999999999994          6.3333718097145072E-033
  -82.709999999999994          6.9668956738825479E-033
  -82.694999999999993          7.5632452638898030E-033
  -82.680000000000007          8.1061252892979986E-033
  -82.665000000000006          8.5778695393822141E-033
  -82.650000000000006          8.9595532897781802E-033
  -82.635000000000005          9.2311461167478848E-033
  -82.620000000000005          9.3717109965352447E-033
  -82.605000000000004          9.3596423429721461E-033
  -82.590000000000003          9.1729584116982123E-033
  -82.575000000000003          8.7896407241546033E-033
  -82.560000000000002          8.1880271235075722E-033
  -82.545000000000002          7.3472591971857466E-033
  -82.530000000000001          6.2477825966631979E-033
  -82.515000000000001          4.8719031932241736E-033
  -82.500000000000000          3.2043946616056787E-033
  -82.484999999999999          1.2331516140461514E-033
  -82.469999999999999         -1.0501141029826668E-033
  -82.454999999999998         -3.6491348677156293E-033
  -82.439999999999998         -6.5623272525279797E-033
  -82.424999999999997         -9.7820106875340408E-033
  -82.409999999999997         -1.3293623001779032E-032
  -82.394999999999996         -1.7074950290768290E-032
  -82.379999999999995         -2.1095373130714800E-032
  -82.364999999999995         -2.5315181853079849E-032
  -82.349999999999994         -2.9684943981675481E-032
  -82.334999999999994         -3.4144978198942511E-032
  -82.319999999999993         -3.8624939984191855E-032
  -82.305000000000007         -4.3043576229158801E-032
  -82.290000000000006         -4.7308631198454938E-032
  -82.275000000000006         -5.1316993466362012E-032
  -82.260000000000005         -5.4955066197552434E-032
  -82.245000000000005         -5.8099413668982234E-032
  -82.230000000000004         -6.0617710481579345E-032
  -82.215000000000003         -6.2370008155406621E-032
  -82.200000000000003         -6.3210363189337720E-032
  -82.185000000000002         -6.2988870666284030E-032
  -82.170000000000002         -6.1554015241896313E-032
  -82.155000000000001         -5.8755486453534923E-032
  -82.140000000000001         -5.4447358432488780E-032
  -82.125000000000000         -4.8491669284273628E-032
  -82.109999999999999         -4.0762382504594299E-032
  -82.094999999999999         -3.1149671656253469E-032
  -82.079999999999998         -1.9564538592582443E-032
  -82.064999999999998         -5.9436561268245633E-033
  -82.049999999999997          9.7455843216539659E-033
  -82.034999999999997          2.7499943898574644E-032
  -82.019999999999996          4.7275182506702290E-032
  -82.004999999999995          6.8981017771789936E-032
  -81.989999999999995          9.2476316903341982E-032
  -81.974999999999994          1.1756464597912839E-031
  -81.960000000000008          1.4399032322290181E-031
  -81.944999999999993          1.7143515406883815E-031
  -81.930000000000007          1.9951597437834338E-031
  -81.915000000000006          2.2778329862155008E-031
  -81.900000000000006          2.5572089669935112E-031
  -81.885000000000005          2.8274701645752456E-031
  -81.870000000000005          3.0821685222487035E-031
  -81.855000000000004          3.3142680010276028E-031
  -81.840000000000003          3.5162047649621426E-031