  -90.000000000000000          0.0000000000000000     
  -89.984999999999999          0.0000000000000000     
  -89.969999999999999          0.0000000000000000     
  -89.954999999999998          0.0000000000000000     
  -89.939999999999998          0.0000000000000000     
  -89.924999999999997          0.0000000000000000     
  -89.909999999999997          0.0000000000000000     
  -89.894999999999996          0.0000000000000000     
  -89.879999999999995          0.0000000000000000     
  -89.864999999999995          0.0000000000000000     
  -89.849999999999994          0.0000000000000000     
  -89.834999999999994          0.0000000000000000     
  -89.819999999999993          0.0000000000000000     
  -89.805000000000007          0.0000000000000000     
  -89.790000000000006          0.0000000000000000     
  -89.775000000000006          0.0000000000000000     
  -89.760000000000005          0.0000000000000000     
  -89.745000000000005          0.0000000000000000     
  -89.730000000000004          0.0000000000000000     
  -89.715000000000003          0.0000000000000000     
  -89.700000000000003          0.0000000000000000     
  -89.685000000000002          0.0000000000000000     
  -89.670000000000002          0.0000000000000000     
  -89.655000000000001          0.0000000000000000     
  -89.640000000000001          0.0000000000000000     
  -89.625000000000000          0.0000000000000000     
  -89.609999999999999          0.0000000000000000     
  -89.594999999999999          0.0000000000000000     
  -89.579999999999998          0.0000000000000000     
  -89.564999999999998          0.0000000000000000     
  -89.549999999999997          0.0000000000000000     
  -89.534999999999997          0.0000000000000000     
  -89.519999999999996          0.0000000000000000     
  -89.504999999999995          0.0000000000000000     
  -89.489999999999995          0.0000000000000000     
  -89.474999999999994          0.0000000000000000     
  -89.459999999999994          0.0000000000000000     
  -89.444999999999993          0.0000000000000000     
  -89.430000000000007          0.0000000000000000     
  -89.415000000000006          0.0000000000000000     
  -89.400000000000006          0.0000000000000000     
  -89.385000000000005          0.0000000000000000     
  -89.370000000000005          0.0000000000000000     
  -89.355000000000004          0.0000000000000000     
  -89.340000000000003          0.0000000000000000     
  -89.325000000000003          0.0000000000000000     
  -89.310000000000002          0.0000000000000000     
  -89.295000000000002          0.0000000000000000     
  -89.280000000000001          0.0000000000000000     
  -89.265000000000001          0.0000000000000000     
  -89.250000000000000          0.0000000000000000     
  -89.234999999999999          0.0000000000000000     
  -89.219999999999999          0.0000000000000000     
  -89.204999999999998          0.0000000000000000     
  -89.189999999999998          0.0000000000000000     
  -89.174999999999997          0.0000000000000000     
  -89.159999999999997          0.0000000000000000     
  -89.144999999999996          0.0000000000000000     
  -89.129999999999995          0.0000000000000000     
  -89.114999999999995          0.0000000000000000     
  -89.099999999999994          0.0000000000000000     
  -89.084999999999994          0.0000000000000000     
  -89.069999999999993          0.0000000000000000     
  -89.055000000000007          0.0000000000000000     
  -89.040000000000006          0.0000000000000000     
  -89.025000000000006          0.0000000000000000     
  -89.010000000000005          0.0000000000000000     
  -88.995000000000005          0.0000000000000000     
  -88.980000000000004          0.0000000000000000     
  -88.965000000000003          0.0000000000000000     
  -88.950000000000003          0.0000000000000000     
  -88.935000000000002          0.0000000000000000     
  -88.920000000000002          0.0000000000000000     
  -88.905000000000001          0.0000000000000000     
  -88.890000000000001          0.0000000000000000     
  -88.875000000000000          0.0000000000000000     
  -88.859999999999999          0.0000000000000000     
  -88.844999999999999          0.0000000000000000     
  -88.829999999999998          0.0000000000000000     
  -88.814999999999998          0.0000000000000000     
  -88.799999999999997          0.0000000000000000     
  -88.784999999999997          0.0000000000000000     
  -88.769999999999996          0.0000000000000000     
  -88.754999999999995          0.0000000000000000     
  -88.739999999999995          0.0000000000000000     
  -88.724999999999994          0.0000000000000000     
  -88.709999999999994          0.0000000000000000     
  -88.694999999999993          0.0000000000000000     
  -88.680000000000007          0.0000000000000000     
  -88.665000000000006          0.0000000000000000     
  -88.650000000000006          0.0000000000000000     
  -88.635000000000005          0.0000000000000000     
  -88.620000000000005          0.0000000000000000     
  -88.605000000000004          0.0000000000000000     
  -88.590000000000003          0.0000000000000000     
  -88.575000000000003          0.0000000000000000     
  -88.560000000000002          0.0000000000000000     
  -88.545000000000002          0.0000000000000000     
  -88.530000000000001          0.0000000000000000     
  -88.515000000000001          0.0000000000000000     
  -88.500000000000000          0.0000000000000000     
  -88.484999999999999          0.0000000000000000     
  -88.469999999999999          0.0000000000000000     
  -88.454999999999998          0.0000000000000000     
  -88.439999999999998          0.0000000000000000     
  -88.424999999999997          0.0000000000000000     
  -88.409999999999997          0.0000000000000000     
  -88.394999999999996          0.0000000000000000     
  -88.379999999999995          0.0000000000000000     
  -88.364999999999995          0.0000000000000000     
  -88.349999999999994          0.0000000000000000     
  -88.334999999999994          0.0000000000000000     
  -88.319999999999993          0.0000000000000000     
  -88.305000000000007          0.0000000000000000     
  -88.290000000000006          0.0000000000000000     
  -88.275000000000006          0.0000000000000000     
  -88.260000000000005          0.0000000000000000     
  -88.245000000000005          0.0000000000000000     
  -88.230000000000004          0.0000000000000000     
  -88.215000000000003          0.0000000000000000     
  -88.200000000000003          0.0000000000000000     
  -88.185000000000002          0.0000000000000000     
  -88.170000000000002          0.0000000000000000     
  -88.155000000000001          0.0000000000000000     
  -88.140000000000001          0.0000000000000000     
  -88.125000000000000          0.0000000000000000     
  -88.109999999999999          0.0000000000000000     
  -88.094999999999999          0.0000000000000000     
  -88.079999999999998          0.0000000000000000     
  -88.064999999999998          0.0000000000000000     
  -88.049999999999997          0.0000000000000000     
  -88.034999999999997          0.0000000000000000     
  -88.019999999999996          0.0000000000000000     
  -88.004999999999995          0.0000000000000000     
  -87.989999999999995          0.0000000000000000     
  -87.974999999999994          0.0000000000000000     
  -87.959999999999994          0.0000000000000000     
  -87.944999999999993          0.0000000000000000     
  -87.930000000000007          0.0000000000000000     
  -87.915000000000006          0.0000000000000000     
  -87.900000000000006          0.0000000000000000     
  -87.885000000000005          0.0000000000000000     
  -87.870000000000005          0.0000000000000000     
  -87.855000000000004          0.0000000000000000     
  -87.840000000000003          0.0000000000000000     
  -87.825000000000003          0.0000000000000000     
  -87.810000000000002          0.0000000000000000     
  -87.795000000000002          0.0000000000000000     
  -87.780000000000001          0.0000000000000000     
  -87.765000000000001          0.0000000000000000     
  -87.750000000000000          0.0000000000000000     
  -87.734999999999999          0.0000000000000000     
  -87.719999999999999          0.0000000000000000     
  -87.704999999999998          0.0000000000000000     
  -87.689999999999998          0.0000000000000000     
  -87.674999999999997          0.0000000000000000     
  -87.659999999999997          0.0000000000000000     
  -87.644999999999996          0.0000000000000000     
  -87.629999999999995          0.0000000000000000     
  -87.614999999999995          0.0000000000000000     
  -87.599999999999994          0.0000000000000000     
  -87.584999999999994          0.0000000000000000     
  -87.569999999999993          0.0000000000000000     
  -87.555000000000007          0.0000000000000000     
  -87.540000000000006          0.0000000000000000     
  -87.525000000000006          0.0000000000000000     
  -87.510000000000005          0.0000000000000000     
  -87.495000000000005          0.0000000000000000     
  -87.480000000000004          0.0000000000000000     
  -87.465000000000003          0.0000000000000000     
  -87.450000000000003          0.0000000000000000     
  -87.435000000000002          0.0000000000000000     
  -87.420000000000002          0.0000000000000000     
  -87.405000000000001          0.0000000000000000     
  -87.390000000000001          0.0000000000000000     
  -87.375000000000000          0.0000000000000000     
  -87.359999999999999          0.0000000000000000     
  -87.344999999999999          0.0000000000000000     
  -87.329999999999998          0.0000000000000000     
  -87.314999999999998          0.0000000000000000     
  -87.299999999999997          0.0000000000000000     
  -87.284999999999997          0.0000000000000000     
  -87.269999999999996          0.0000000000000000     
  -87.254999999999995          0.0000000000000000     
  -87.239999999999995          0.0000000000000000     
  -87.224999999999994          0.0000000000000000     
  -87.209999999999994          0.0000000000000000     
  -87.194999999999993          0.0000000000000000     
  -87.180000000000007          0.0000000000000000     
  -87.165000000000006          0.0000000000000000     
  -87.150000000000006          0.0000000000000000     
  -87.135000000000005          0.0000000000000000     
  -87.120000000000005          0.0000000000000000     
  -87.105000000000004          0.0000000000000000     
  -87.090000000000003          0.0000000000000000     
  -87.075000000000003          0.0000000000000000     
  -87.060000000000002          0.0000000000000000     
  -87.045000000000002          0.0000000000000000     
  -87.030000000000001          0.0000000000000000     
  -87.015000000000001          0.0000000000000000     
  -87.000000000000000          0.0000000000000000     
  -86.984999999999999          0.0000000000000000     
  -86.969999999999999          0.0000000000000000     
  -86.954999999999998          0.0000000000000000     
  -86.939999999999998          0.0000000000000000     
  -86.924999999999997          0.0000000000000000     
  -86.909999999999997          0.0000000000000000     
  -86.894999999999996          0.0000000000000000     
  -86.879999999999995          0.0000000000000000     
  -86.864999999999995          0.0000000000000000     
  -86.849999999999994          0.0000000000000000     
  -86.834999999999994          0.0000000000000000     
  -86.819999999999993          0.0000000000000000     
  -86.805000000000007          0.0000000000000000     
  -86.790000000000006          0.0000000000000000     
  -86.775000000000006          0.0000000000000000     
  -86.760000000000005          0.0000000000000000     
  -86.745000000000005          0.0000000000000000     
  -86.730000000000004          0.0000000000000000     
  -86.715000000000003          0.0000000000000000     
  -86.700000000000003          0.0000000000000000     
  -86.685000000000002          0.0000000000000000     
  -86.670000000000002          0.0000000000000000     
  -86.655000000000001          0.0000000000000000     
  -86.640000000000001          0.0000000000000000     
  -86.625000000000000          0.0000000000000000     
  -86.609999999999999          0.0000000000000000     
  -86.594999999999999          0.0000000000000000     
  -86.579999999999998          0.0000000000000000     
  -86.564999999999998          0.0000000000000000     
  -86.549999999999997          0.0000000000000000     
  -86.534999999999997          0.0000000000000000     
  -86.519999999999996          0.0000000000000000     
  -86.504999999999995          0.0000000000000000     
  -86.489999999999995          0.0000000000000000     
  -86.474999999999994          0.0000000000000000     
  -86.459999999999994          0.0000000000000000     
  -86.444999999999993          0.0000000000000000     
  -86.430000000000007          0.0000000000000000     
  -86.415000000000006          0.0000000000000000     
  -86.400000000000006          0.0000000000000000     
  -86.385000000000005          0.0000000000000000     
  -86.370000000000005          0.0000000000000000     
  -86.355000000000004          0.0000000000000000     
  -86.340000000000003          0.0000000000000000     
  -86.325000000000003          0.0000000000000000     
  -86.310000000000002          0.0000000000000000     
  -86.295000000000002          0.0000000000000000     
  -86.280000000000001          0.0000000000000000     
  -86.265000000000001          0.0000000000000000     
  -86.250000000000000          0.0000000000000000     
  -86.234999999999999          0.0000000000000000     
  -86.219999999999999          0.0000000000000000     
  -86.204999999999998          0.0000000000000000     
  -86.189999999999998          0.0000000000000000     
  -86.174999999999997          0.0000000000000000     
  -86.159999999999997          0.0000000000000000     
  -86.144999999999996          0.0000000000000000     
  -86.129999999999995          0.0000000000000000     
  -86.114999999999995          0.0000000000000000     
  -86.099999999999994          0.0000000000000000     
  -86.084999999999994          0.0000000000000000     
  -86.069999999999993          0.0000000000000000     
  -86.055000000000007          0.0000000000000000     
  -86.040000000000006          0.0000000000000000     
  -86.025000000000006          0.0000000000000000     
  -86.010000000000005          0.0000000000000000     
  -85.995000000000005          0.0000000000000000     
  -85.980000000000004          0.0000000000000000     
  -85.965000000000003          0.0000000000000000     
  -85.950000000000003          0.0000000000000000     
  -85.935000000000002          0.0000000000000000     
  -85.920000000000002          0.0000000000000000     
  -85.905000000000001          0.0000000000000000     
  -85.890000000000001          0.0000000000000000     
  -85.875000000000000          0.0000000000000000     
  -85.859999999999999          0.0000000000000000     
  -85.844999999999999          0.0000000000000000     
  -85.829999999999998          0.0000000000000000     
  -85.814999999999998          0.0000000000000000     
  -85.799999999999997          0.0000000000000000     
  -85.784999999999997          0.0000000000000000     
  -85.769999999999996          0.0000000000000000     
  -85.754999999999995          0.0000000000000000     
  -85.739999999999995          0.0000000000000000     
  -85.724999999999994          0.0000000000000000     
  -85.709999999999994          0.0000000000000000     
  -85.694999999999993          0.0000000000000000     
  -85.680000000000007          0.0000000000000000     
  -85.665000000000006          0.0000000000000000     
  -85.650000000000006          0.0000000000000000     
  -85.635000000000005          0.0000000000000000     
  -85.620000000000005          0.0000000000000000     
  -85.605000000000004          0.0000000000000000     
  -85.590000000000003          0.0000000000000000     
  -85.575000000000003          0.0000000000000000     
  -85.560000000000002          0.0000000000000000     
  -85.545000000000002          0.0000000000000000     
  -85.530000000000001          0.0000000000000000     
  -85.515000000000001          0.0000000000000000     
  -85.500000000000000          0.0000000000000000     
  -85.484999999999999          0.0000000000000000     
  -85.469999999999999          0.0000000000000000     
  -85.454999999999998          0.0000000000000000     
  -85.439999999999998          0.0000000000000000     
  -85.424999999999997          0.0000000000000000     
  -85.409999999999997          0.0000000000000000     
  -85.394999999999996          0.0000000000000000     
  -85.379999999999995          0.0000000000000000     
  -85.364999999999995          0.0000000000000000     
  -85.349999999999994          0.0000000000000000     
  -85.334999999999994          0.0000000000000000     
  -85.319999999999993          0.0000000000000000     
  -85.305000000000007          0.0000000000000000     
  -85.290000000000006          0.0000000000000000     
  -85.275000000000006          0.0000000000000000     
  -85.260000000000005          0.0000000000000000     
  -85.245000000000005          0.0000000000000000     
  -85.230000000000004          0.0000000000000000     
  -85.215000000000003          0.0000000000000000     
  -85.200000000000003          0.0000000000000000     
  -85.185000000000002          0.0000000000000000     
  -85.170000000000002          0.0000000000000000     
  -85.155000000000001          0.0000000000000000     
  -85.140000000000001          0.0000000000000000     
  -85.125000000000000          0.0000000000000000     
  -85.109999999999999          0.0000000000000000     
  -85.094999999999999          0.0000000000000000     
  -85.079999999999998          0.0000000000000000     
  -85.064999999999998          0.0000000000000000     
  -85.049999999999997          0.0000000000000000     
  -85.034999999999997          0.0000000000000000     
  -85.019999999999996          0.0000000000000000     
  -85.004999999999995          0.0000000000000000     
  -84.989999999999995          0.0000000000000000     
  -84.974999999999994          0.0000000000000000     
  -84.959999999999994          0.0000000000000000     
  -84.944999999999993          0.0000000000000000     
  -84.930000000000007          0.0000000000000000     
  -84.915000000000006          0.0000000000000000     
  -84.900000000000006          0.0000000000000000     
  -84.885000000000005          0.0000000000000000     
  -84.870000000000005          0.0000000000000000     
  -84.855000000000004          0.0000000000000000     
  -84.840000000000003          0.0000000000000000     
  -84.825000000000003          0.0000000000000000     
  -84.810000000000002          0.0000000000000000     
  -84.795000000000002          0.0000000000000000     
  -84.780000000000001          0.0000000000000000     
  -84.765000000000001          0.0000000000000000     
  -84.750000000000000          0.0000000000000000     
  -84.734999999999999          0.0000000000000000     
  -84.719999999999999          0.0000000000000000     
  -84.704999999999998          0.0000000000000000     
  -84.689999999999998          0.0000000000000000     
  -84.674999999999997          0.0000000000000000     
  -84.659999999999997          0.0000000000000000     
  -84.644999999999996          0.0000000000000000     
  -84.629999999999995          0.0000000000000000     
  -84.614999999999995          0.0000000000000000     
  -84.599999999999994          0.0000000000000000     
  -84.584999999999994          0.0000000000000000     
  -84.569999999999993          0.0000000000000000     
  -84.555000000000007          0.0000000000000000     
  -84.540000000000006          0.0000000000000000     
  -84.525000000000006          0.0000000000000000     
  -84.510000000000005          0.0000000000000000     
  -84.495000000000005          0.0000000000000000     
  -84.480000000000004          0.0000000000000000     
  -84.465000000000003          0.0000000000000000     
  -84.450000000000003          0.0000000000000000     
  -84.435000000000002          0.0000000000000000     
  -84.420000000000002          0.0000000000000000     
  -84.405000000000001          0.0000000000000000     
  -84.390000000000001          0.0000000000000000     
  -84.375000000000000          0.0000000000000000     
  -84.359999999999999          0.0000000000000000     
  -84.344999999999999          0.0000000000000000     
  -84.329999999999998          0.0000000000000000     
  -84.314999999999998          0.0000000000000000     
  -84.299999999999997          0.0000000000000000     
  -84.284999999999997          0.0000000000000000     
  -84.269999999999996          0.0000000000000000     
  -84.254999999999995          0.0000000000000000     
  -84.239999999999995          0.0000000000000000     
  -84.224999999999994          0.0000000000000000     
  -84.209999999999994          0.0000000000000000     
  -84.194999999999993          0.0000000000000000     
  -84.180000000000007          0.0000000000000000     
  -84.165000000000006          0.0000000000000000     
  -84.150000000000006          0.0000000000000000     
  -84.135000000000005          0.0000000000000000     
  -84.120000000000005          0.0000000000000000     
  -84.105000000000004          0.0000000000000000     
  -84.090000000000003          0.0000000000000000     
  -84.075000000000003          0.0000000000000000     
  -84.060000000000002          0.0000000000000000     
  -84.045000000000002          0.0000000000000000     
  -84.030000000000001          0.0000000000000000     
  -84.015000000000001          0.0000000000000000     
  -84.000000000000000          0.0000000000000000     
  -83.984999999999999          0.0000000000000000     
  -83.969999999999999          0.0000000000000000     
  -83.954999999999998          0.0000000000000000     
  -83.939999999999998          0.0000000000000000     
  -83.924999999999997          0.0000000000000000     
  -83.909999999999997          0.0000000000000000     
  -83.894999999999996          0.0000000000000000     
  -83.879999999999995          0.0000000000000000     
  -83.864999999999995          0.0000000000000000     
  -83.849999999999994          0.0000000000000000     
  -83.834999999999994          0.0000000000000000     
  -83.819999999999993          0.0000000000000000     
  -83.805000000000007          0.0000000000000000     
  -83.790000000000006          0.0000000000000000     
  -83.775000000000006          0.0000000000000000     
  -83.760000000000005          0.0000000000000000     
  -83.745000000000005          0.0000000000000000     
  -83.730000000000004          0.0000000000000000     
  -83.715000000000003          0.0000000000000000     
  -83.700000000000003          0.0000000000000000     
  -83.685000000000002          0.0000000000000000     
  -83.670000000000002          0.0000000000000000     
  -83.655000000000001          0.0000000000000000     
  -83.640000000000001          0.0000000000000000     
  -83.625000000000000          0.0000000000000000     
  -83.609999999999999          0.0000000000000000     
  -83.594999999999999          0.0000000000000000     
  -83.579999999999998          0.0000000000000000     
  -83.564999999999998          0.0000000000000000     
  -83.549999999999997          0.0000000000000000     
  -83.534999999999997          0.0000000000000000     
  -83.519999999999996          0.0000000000000000     
  -83.504999999999995          0.0000000000000000     
  -83.489999999999995          0.0000000000000000     
  -83.474999999999994          0.0000000000000000     
  -83.459999999999994          0.0000000000000000     
  -83.444999999999993          0.0000000000000000     
  -83.430000000000007          0.0000000000000000     
  -83.415000000000006         -1.3919970655081682E-038
  -83.400000000000006         -3.0784016134368161E-038
  -83.385000000000005         -5.0708624977900294E-038
  -83.370000000000005         -7.3764911681444101E-038
  -83.355000000000004         -9.9968161608648437E-038
  -83.340000000000003         -1.2926870713674377E-037
  -83.325000000000003         -1.6154166454658948E-037
  -83.310000000000002         -1.9657663728155798E-037
  -83.295000000000002         -2.3406847858805789E-037
  -83.280000000000001         -2.7361383871611796E-037
  -83.265000000000001         -3.1407302480912125E-037
  -83.250000000000000         -3.5453221090212454E-037
  -83.234999999999999         -3.9421992053338458E-037
  -83.219999999999999         -4.3223273097775732E-037
  -83.204999999999998         -4.6714528627888240E-037
  -83.189999999999998         -4.9693281104929989E-037
  -83.174999999999997         -5.2009764233189030E-037
  -83.159999999999997         -5.3508830730850404E-037
  -83.144999999999996         -5.3508830730850404E-037
  -83.129999999999995         -5.3508830730850404E-037
  -83.114999999999995         -5.1622996888725209E-037
  -83.099999999999994         -4.8314650044564091E-037
  -83.084999999999994         -4.3457902028487193E-037
  -83.069999999999993         -3.6945536692392096E-037
  -83.055000000000007         -2.8693101701469643E-037
  -83.040000000000006         -1.8643235743861776E-037
  -83.025000000000006         -6.7699441725358846E-038
  -83.010000000000005          6.8690249422738208E-038
  -82.995000000000005          2.2200134820275888E-037
  -82.980000000000004          3.9182556108374977E-037
  -82.965000000000003          5.7736232064784825E-037
  -82.950000000000003          7.7660463118250976E-037
  -82.935000000000002          9.8666953969994641E-037
  -82.920000000000002          1.2024085186968008E-036
  -82.905000000000001          1.4178103789143018E-036
  -82.890000000000001          1.6281561749063155E-036
  -82.875000000000000          1.8284685842106617E-036
  -82.859999999999999          1.9958185075776127E-036
  -82.844999999999999          2.1288499365092106E-036
  -82.829999999999998          2.2196938962946210E-036
  -82.814999999999998          2.2603108349635441E-036
  -82.799999999999997          2.2714622111972130E-036
  -82.784999999999997          2.2550606068228399E-036
  -82.769999999999996          2.1976209119338816E-036
  -82.754999999999995          2.1023991612212679E-036
  -82.739999999999995          1.9402944437413250E-036
  -82.724999999999994          1.7052676787906478E-036
  -82.709999999999994          1.3882388110528184E-036
  -82.694999999999993          9.9147700236747485E-037
  -82.680000000000007          5.0792477556966719E-037
  -82.665000000000006         -6.5564658803255561E-038
  -82.650000000000006         -6.9998378354766997E-037
  -82.635000000000005         -1.3921623570698261E-036
  -82.620000000000005         -2.1419049262599200E-036
  -82.605000000000004         -2.9523851070384036E-036
  -82.590000000000003         -3.8181134864322941E-036
  -82.575000000000003         -4.7160289516661364E-036
  -82.560000000000002         -5.6237582593546435E-036
  -82.545000000000002         -6.5711045391279314E-036
  -82.530000000000001         -7.4932548895724980E-036
  -82.515000000000001         -8.3855278527787269E-036
  -82.500000000000000         -9.2347809082886330E-036
  -82.484999999999999         -1.0034820899830062E-035
  -82.469999999999999         -1.0796257697068516E-035
  -82.454999999999998         -1.1522507149982186E-035
  -82.439999999999998         -1.2138828796529926E-035
  -82.424999999999997         -1.2819997065337413E-035
  -82.409999999999997         -1.3531861348735710E-035
  -82.394999999999996         -1.3752542046003363E-035
  -82.379999999999995         -1.3484643554414228E-035
  -82.364999999999995         -1.2964765680523094E-035
  -82.349999999999994         -1.2150377110171793E-035
  -82.334999999999994         -1.1014184046916243E-035
  -82.319999999999993         -9.5312933315791197E-036
  -82.305000000000007         -7.6723821772231011E-036
  -82.290000000000006         -5.4115267864659326E-036
  -82.275000000000006         -2.7265485282530526E-036
  -82.260000000000005          3.8284541274264432E-037
  -82.245000000000005          3.8974353200415384E-036
  -82.230000000000004          8.1413092873668926E-036
  -82.215000000000003          1.2917361345350041E-035
  -82.200000000000003          1.8237413161726884E-035
  -82.185000000000002          2.4038436170075676E-035
  -82.170000000000002          3.0413890206892704E-035
  -82.155000000000001          3.7259632384605176E-035
  -82.140000000000001          4.4429579692488653E-035
  -82.125000000000000          5.1763949846665247E-035
  -82.109999999999999          5.9041614451823537E-035
  -82.094999999999999          6.6025801509853437E-035
  -82.079999999999998          7.2458642687261816E-035
  -82.064999999999998          7.8052457552615259E-035
  -82.049999999999997          8.2538541183873991E-035
  -82.034999999999997          8.5584552399879263E-035
  -82.019999999999996          8.6864928627032487E-035
  -82.004999999999995          8.5886111470669557E-035
  -81.989999999999995          8.2503167298697635E-035
  -81.974999999999994          7.6607839280301978E-035
  -81.960000000000008          6.7898430591448055E-035
  -81.944999999999993          5.6206744520922507E-035
  -81.930000000000007          4.1397524602040140E-035
  -81.915000000000006          2.3478066017027006E-035
  -81.900000000000006          2.3199231926746933E-036
  -81.885000000000005         -2.1969028014018150E-035
  -81.870000000000005         -4.9228693221979663E-035
  -81.855000000000004         -7.9421357458346276E-035
  -81.840000000000003         -1.1230914095933550E-034