  -90.000000000000000          0.0000000000000000     
  -89.984999999999999          0.0000000000000000     
  -89.969999999999999          0.0000000000000000     
  -89.954999999999998          0.0000000000000000     
  -89.939999999999998          0.0000000000000000     
  -89.924999999999997          0.0000000000000000     
  -89.909999999999997          0.0000000000000000     
  -89.894999999999996          0.0000000000000000     
  -89.879999999999995          0.0000000000000000     
  -89.864999999999995          0.0000000000000000     
  -89.849999999999994          0.0000000000000000     
  -89.834999999999994          0.0000000000000000     
  -89.819999999999993          0.0000000000000000     
  -89.805000000000007          0.0000000000000000     
  -89.790000000000006          0.0000000000000000     
  -89.775000000000006          0.0000000000000000     
  -89.760000000000005          0.0000000000000000     
  -89.745000000000005          0.0000000000000000     
  -89.730000000000004          0.0000000000000000     
  -89.715000000000003          0.0000000000000000     
  -89.700000000000003          0.0000000000000000     
  -89.685000000000002          0.0000000000000000     
  -89.670000000000002          0.0000000000000000     
  -89.655000000000001          0.0000000000000000     
  -89.640000000000001          0.0000000000000000     
  -89.625000000000000          0.0000000000000000     
  -89.609999999999999          0.0000000000000000     
  -89.594999999999999          0.0000000000000000     
  -89.579999999999998          0.0000000000000000     
  -89.564999999999998          0.0000000000000000     
  -89.549999999999997          0.0000000000000000     
  -89.534999999999997          0.0000000000000000     
  -89.519999999999996          0.0000000000000000     
  -89.504999999999995          0.0000000000000000     
  -89.489999999999995          0.0000000000000000     
  -89.474999999999994          0.0000000000000000     
  -89.459999999999994          0.0000000000000000     
  -89.444999999999993          0.0000000000000000     
  -89.430000000000007          0.0000000000000000     
  -89.415000000000006          0.0000000000000000     
  -89.400000000000006          0.0000000000000000     
  -89.385000000000005          0.0000000000000000     
  -89.370000000000005          0.0000000000000000     
  -89.355000000000004          0.0000000000000000     
  -89.340000000000003          0.0000000000000000     
  -89.325000000000003          0.0000000000000000     
  -89.310000000000002          0.0000000000000000     
  -89.295000000000002          0.0000000000000000     
  -89.280000000000001          0.0000000000000000     
  -89.265000000000001          0.0000000000000000     
  -89.250000000000000          0.0000000000000000     
  -89.234999999999999          0.0000000000000000     
  -89.219999999999999          0.0000000000000000     
  -89.204999999999998          0.0000000000000000     
  -89.189999999999998          0.0000000000000000     
  -89.174999999999997          0.0000000000000000     
  -89.159999999999997          0.0000000000000000     
  -89.144999999999996          0.0000000000000000     
  -89.129999999999995          0.0000000000000000     
  -89.114999999999995          0.0000000000000000     
  -89.099999999999994          0.0000000000000000     
  -89.084999999999994          0.0000000000000000     
  -89.069999999999993          0.0000000000000000     
  -89.055000000000007          0.0000000000000000     
  -89.040000000000006          0.0000000000000000     
  -89.025000000000006          0.0000000000000000     
  -89.010000000000005          0.0000000000000000     
  -88.995000000000005          0.0000000000000000     
  -88.980000000000004          0.0000000000000000     
  -88.965000000000003          0.0000000000000000     
  -88.950000000000003          0.0000000000000000     
  -88.935000000000002          0.0000000000000000     
  -88.920000000000002          0.0000000000000000     
  -88.905000000000001          0.0000000000000000     
  -88.890000000000001          0.0000000000000000     
  -88.875000000000000          0.0000000000000000     
  -88.859999999999999          0.0000000000000000     
  -88.844999999999999          0.0000000000000000     
  -88.829999999999998          0.0000000000000000     
  -88.814999999999998          0.0000000000000000     
  -88.799999999999997          0.0000000000000000     
  -88.784999999999997          0.0000000000000000     
  -88.769999999999996          0.0000000000000000     
  -88.754999999999995          0.0000000000000000     
  -88.739999999999995          0.0000000000000000     
  -88.724999999999994          0.0000000000000000     
  -88.709999999999994          0.0000000000000000     
  -88.694999999999993          0.0000000000000000     
  -88.680000000000007          0.0000000000000000     
  -88.665000000000006          0.0000000000000000     
  -88.650000000000006          0.0000000000000000     
  -88.635000000000005          0.0000000000000000     
  -88.620000000000005          0.0000000000000000     
  -88.605000000000004          0.0000000000000000     
  -88.590000000000003          0.0000000000000000     
  -88.575000000000003          0.0000000000000000     
  -88.560000000000002          0.0000000000000000     
  -88.545000000000002          0.0000000000000000     
  -88.530000000000001          0.0000000000000000     
  -88.515000000000001          0.0000000000000000     
  -88.500000000000000          0.0000000000000000     
  -88.484999999999999          0.0000000000000000     
  -88.469999999999999          0.0000000000000000     
  -88.454999999999998          0.0000000000000000     
  -88.439999999999998          0.0000000000000000     
  -88.424999999999997          0.0000000000000000     
  -88.409999999999997          0.0000000000000000     
  -88.394999999999996          0.0000000000000000     
  -88.379999999999995          0.0000000000000000     
  -88.364999999999995          0.0000000000000000     
  -88.349999999999994          0.0000000000000000     
  -88.334999999999994          0.0000000000000000     
  -88.319999999999993          0.0000000000000000     
  -88.305000000000007          0.0000000000000000     
  -88.290000000000006          0.0000000000000000     
  -88.275000000000006          0.0000000000000000     
  -88.260000000000005          0.0000000000000000     
  -88.245000000000005          0.0000000000000000     
  -88.230000000000004          0.0000000000000000     
  -88.215000000000003          0.0000000000000000     
  -88.200000000000003          0.0000000000000000     
  -88.185000000000002          0.0000000000000000     
  -88.170000000000002          0.0000000000000000     
  -88.155000000000001          0.0000000000000000     
  -88.140000000000001          0.0000000000000000     
  -88.125000000000000          0.0000000000000000     
  -88.109999999999999          0.0000000000000000     
  -88.094999999999999          0.0000000000000000     
  -88.079999999999998          0.0000000000000000     
  -88.064999999999998          0.0000000000000000     
  -88.049999999999997          0.0000000000000000     
  -88.034999999999997          0.0000000000000000     
  -88.019999999999996          0.0000000000000000     
  -88.004999999999995          0.0000000000000000     
  -87.989999999999995          0.0000000000000000     
  -87.974999999999994          0.0000000000000000     
  -87.959999999999994          0.0000000000000000     
  -87.944999999999993          0.0000000000000000     
  -87.930000000000007          0.0000000000000000     
  -87.915000000000006          0.0000000000000000     
  -87.900000000000006          0.0000000000000000     
  -87.885000000000005          0.0000000000000000     
  -87.870000000000005          0.0000000000000000     
  -87.855000000000004          0.0000000000000000     
  -87.840000000000003          0.0000000000000000     
  -87.825000000000003          0.0000000000000000     
  -87.810000000000002          0.0000000000000000     
  -87.795000000000002          0.0000000000000000     
  -87.780000000000001          0.0000000000000000     
  -87.765000000000001          0.0000000000000000     
  -87.750000000000000          0.0000000000000000     
  -87.734999999999999          0.0000000000000000     
  -87.719999999999999          0.0000000000000000     
  -87.704999999999998          0.0000000000000000     
  -87.689999999999998          0.0000000000000000     
  -87.674999999999997          0.0000000000000000     
  -87.659999999999997          0.0000000000000000     
  -87.644999999999996          0.0000000000000000     
  -87.629999999999995          0.0000000000000000     
  -87.614999999999995          0.0000000000000000     
  -87.599999999999994          0.0000000000000000     
  -87.584999999999994          0.0000000000000000     
  -87.569999999999993          0.0000000000000000     
  -87.555000000000007          0.0000000000000000     
  -87.540000000000006          0.0000000000000000     
  -87.525000000000006          0.0000000000000000     
  -87.510000000000005          0.0000000000000000     
  -87.495000000000005          0.0000000000000000     
  -87.480000000000004          0.0000000000000000     
  -87.465000000000003          0.0000000000000000     
  -87.450000000000003          0.0000000000000000     
  -87.435000000000002          0.0000000000000000     
  -87.420000000000002          0.0000000000000000     
  -87.405000000000001          0.0000000000000000     
  -87.390000000000001          0.0000000000000000     
  -87.375000000000000          0.0000000000000000     
  -87.359999999999999          0.0000000000000000     
  -87.344999999999999          0.0000000000000000     
  -87.329999999999998          0.0000000000000000     
  -87.314999999999998          0.0000000000000000     
  -87.299999999999997          0.0000000000000000     
  -87.284999999999997          1.4346129340156753E-038
  -87.269999999999996          3.5699092918762886E-038
  -87.254999999999995          6.5846908339939865E-038
  -87.239999999999995          1.0149983688209403E-037
  -87.224999999999994          1.3870919883896149E-037
  -87.209999999999994          1.7818294701030071E-037
  -87.194999999999993          2.2080430300259404E-037
  -87.180000000000007          2.6764345526862793E-037
  -87.165000000000006          3.1994908405438065E-037
  -87.150000000000006          3.7909567257676369E-037
  -87.135000000000005          4.4655512232192841E-037
  -87.120000000000005          5.2406634379061248E-037
  -87.105000000000004          6.9768184253435430E-037
  -87.090000000000003          9.7595160189687476E-037
  -87.075000000000003          1.3725866883594924E-036
  -87.060000000000002          1.9011675001243246E-036
  -87.045000000000002          2.6116599907987610E-036
  -87.030000000000001          3.5348156888135728E-036
  -87.015000000000001          4.7072489760080628E-036
  -87.000000000000000          6.0811004651510672E-036
  -86.984999999999999          7.6750339271746631E-036
  -86.969999999999999          9.5034528269469737E-036
  -86.954999999999998          1.1512263904836501E-035
  -86.939999999999998          1.3687007374987244E-035
  -86.924999999999997          1.6006615600608707E-035
  -86.909999999999997          1.8460306520480094E-035
  -86.894999999999996          2.0921816371891556E-035
  -86.879999999999995          2.3362326028205015E-035
  -86.864999999999995          2.5677813135936389E-035
  -86.849999999999994          2.7785440642621543E-035
  -86.834999999999994          2.9601831962256411E-035
  -86.819999999999993          3.0998348523597689E-035
  -86.805000000000007          3.1917182751673176E-035
  -86.790000000000006          3.2219677396580579E-035
  -86.775000000000006          3.1835279838396522E-035
  -86.760000000000005          3.0646942867408391E-035
  -86.745000000000005          2.8512909785718560E-035
  -86.730000000000004          2.5386665914523008E-035
  -86.715000000000003          2.1178255515475727E-035
  -86.700000000000003          1.5773679169392845E-035
  -86.685000000000002          9.0666143305974490E-036
  -86.670000000000002          8.1172354730068517E-037
  -86.655000000000001         -9.0916416556949428E-036
  -86.640000000000001         -2.0684675596867211E-035
  -86.625000000000000         -3.4167029003595998E-035
  -86.609999999999999         -4.9724581942358776E-035
  -86.594999999999999         -6.7352497265381347E-035
  -86.579999999999998         -8.7059964261998020E-035
  -86.564999999999998         -1.0885880101262063E-034
  -86.549999999999997         -1.3273808483292488E-034
  -86.534999999999997         -1.5863135552228493E-034
  -86.519999999999996         -1.8640585339156740E-034
  -86.504999999999995         -2.1584886447279633E-034
  -86.489999999999995         -2.4672021598464454E-034
  -86.474999999999994         -2.7868881800458843E-034
  -86.459999999999994         -3.1130362049324802E-034
  -86.444999999999993         -3.4405691091011386E-034
  -86.430000000000007         -3.7632925883360030E-034
  -86.415000000000006         -4.0743364291694941E-034
  -86.400000000000006         -4.3649392956793991E-034
  -86.385000000000005         -4.6257920532089229E-034
  -86.370000000000005         -4.8465618309078490E-034
  -86.355000000000004         -5.0153683298156990E-034
  -86.340000000000003         -5.1194909561821486E-034
  -86.325000000000003         -5.1451245390472479E-034
  -86.310000000000002         -5.0780492701858935E-034
  -86.295000000000002         -4.9030948439877468E-034
  -86.280000000000001         -4.6044632592262294E-034
  -86.265000000000001         -4.1659680505260146E-034
  -86.250000000000000         -3.5713552534220994E-034
  -86.234999999999999         -2.8044262343359162E-034
  -86.219999999999999         -1.8491986322823495E-034
  -86.204999999999998         -6.9025510416639552E-035
  -86.189999999999998          6.8650712537663260E-035
  -86.174999999999997          2.2939893938329350E-034
  -86.159999999999997          4.1433273864807042E-034
  -86.144999999999996          6.2435785513200774E-034
  -86.129999999999995          8.6013070600276874E-034
  -86.114999999999995          1.1220243270457472E-033
  -86.099999999999994          1.4100793095502449E-033
  -86.084999999999994          1.7239809332709284E-033
  -86.069999999999993          2.0629832184725065E-033
  -86.055000000000007          2.4259125075140798E-033
  -86.040000000000006          2.8111056595602273E-033
  -86.025000000000006          3.2163843366420814E-033
  -86.010000000000005          3.6390046778054336E-033
  -85.995000000000005          4.0756170751634173E-033
  -85.980000000000004          4.5222274193171292E-033
  -85.965000000000003          4.9741509979365578E-033
  -85.950000000000003          5.4259673126964740E-033
  -85.935000000000002          5.8714697534245359E-033
  -85.920000000000002          6.3036104968035947E-033
  -85.905000000000001          6.7144428336801071E-033
  -85.890000000000001          7.0950590882687326E-033
  -85.875000000000000          7.4355402923004389E-033
  -85.859999999999999          7.7248279826698654E-033
  -85.844999999999999          7.9507109771238761E-033
  -85.829999999999998          8.0997328040814331E-033
  -85.814999999999998          8.1571211729725465E-033
  -85.799999999999997          8.1067291995207335E-033
  -85.784999999999997          7.9309832431812011E-033
  -85.769999999999996          7.6108513157301671E-033
  -85.754999999999995          7.1258386731610450E-033
  -85.739999999999995          6.4540186724111527E-033
  -85.724999999999994          5.5721033010227622E-033
  -85.709999999999994          4.4555739508896284E-033
  -85.694999999999993          3.0788739054569363E-033
  -85.680000000000007          1.4156817339933631E-033
  -85.665000000000006         -5.6072605003459337E-034
  -85.650000000000006         -2.8770099340100712E-033
  -85.635000000000005         -5.5591893935530255E-033
  -85.620000000000005         -8.6319356673643160E-033
  -85.605000000000004         -1.2117742207188912E-032
  -85.590000000000003         -1.6035945527755855E-032
  -85.575000000000003         -2.0401612527906810E-032
  -85.560000000000002         -2.5224280874930761E-032
  -85.545000000000002         -3.0506564574390350E-032
  -85.530000000000001         -3.6242636113041375E-032
  -85.515000000000001         -4.2416605745996595E-032
  -85.500000000000000         -4.9000778826350637E-032
  -85.484999999999999         -5.5953907257333149E-032
  -85.469999999999999         -6.3219379231008527E-032
  -85.454999999999998         -7.0723435415598550E-032
  -85.439999999999998         -7.8373476243617194E-032
  -85.424999999999997         -8.6056460300817632E-032
  -85.409999999999997         -9.3637528997801778E-032
  -85.394999999999996         -1.0095888397291525E-031
  -85.379999999999995         -1.0783900538850406E-031
  -85.364999999999995         -1.1407222875294836E-031
  -85.349999999999994         -1.1942888597998447E-031
  -85.334999999999994         -1.2365599893037194E-031
  -85.319999999999993         -1.2647857245567940E-031
  -85.305000000000007         -1.2760163975845502E-031
  -85.290000000000006         -1.2671311884349898E-031
  -85.275000000000006         -1.2348743304046403E-031
  -85.260000000000005         -1.1759006016699317E-031
  -85.245000000000005         -1.0868303384228148E-031
  -85.230000000000004         -9.6431238259324797E-032
  -85.215000000000003         -8.0509760902084078E-032
  -85.200000000000003         -6.0612021088921365E-032
  -85.185000000000002         -3.6458794830478208E-032
  -85.170000000000002         -7.8079670246836795E-033
  -85.155000000000001          2.5535072765080543E-032
  -85.140000000000001          6.3706480580102266E-032
  -85.125000000000000          1.0677266744309913E-031
  -85.109999999999999          1.5471880155409965E-031
  -85.094999999999999          2.0743730167011655E-031
  -85.079999999999998          2.6471657880800182E-031
  -85.064999999999998          3.2623026871619318E-031
  -85.049999999999997          3.9152714613318397E-031
  -85.034999999999997          4.6002200295136082E-031
  -85.019999999999996          5.3098786644440121E-031
  -85.004999999999995          6.0354967510766600E-031
  -84.989999999999995          6.7667990581921441E-031
  -84.974999999999994          7.4919615232144133E-031
  -84.959999999999994          8.1976107820130324E-031
  -84.944999999999993          8.8688490893834203E-031
  -84.930000000000007          9.4893116831711693E-031
  -84.915000000000006          1.0041248598678863E-030
  -84.900000000000006          1.0505645979683080E-030
  -84.885000000000005          1.0862374660920341E-030
  -84.870000000000005          1.1090380127974196E-030
  -84.855000000000004          1.1167911033377031E-030
  -84.840000000000003          1.1072778745762724E-030
  -84.825000000000003          1.0782664859188822E-030
  -84.810000000000002          1.0275463497091502E-030
  -84.795000000000002          9.5296668744326388E-031
  -84.780000000000001          8.5247922372480240E-031
  -84.765000000000001          7.2418450074215905E-031
  -84.750000000000000          5.6638261260472271E-031
  -84.734999999999999          3.7762788934007809E-031
  -84.719999999999999          1.5678707210942795E-031
  -84.704999999999998         -9.6898632445627001E-032
  -84.689999999999998         -3.8374840630616555E-031
  -84.674999999999997         -7.0357366491348526E-031
  -84.659999999999997         -1.0556074687333357E-030
  -84.644999999999996         -1.4384325007170433E-030
  -84.629999999999995         -1.8499072452562801E-030
  -84.614999999999995         -2.2870939068694710E-030
  -84.599999999999994         -2.7461857646509132E-030
  -84.584999999999994         -3.2224385234006878E-030
  -84.569999999999993         -3.7101069309692640E-030
  -84.555000000000007         -4.2023881664495629E-030
  -84.540000000000006         -4.6913719992164833E-030
  -84.525000000000006         -5.1680080631641741E-030
  -84.510000000000005         -5.6220840395308835E-030
  -84.495000000000005         -6.0422256568989590E-030
  -84.480000000000004         -6.4159188845281907E-030
  -84.465000000000003         -6.7295588329208056E-030
  -84.450000000000003         -6.9685283708836508E-030
  -84.435000000000002         -7.1173177438333326E-030
  -84.420000000000002         -7.1596769178640839E-030
  -84.405000000000001         -7.0788172005388165E-030
  -84.390000000000001         -6.8576617622451688E-030
  -84.375000000000000         -6.4791443058001624E-030
  -84.359999999999999         -5.9265652882582757E-030
  -84.344999999999999         -5.1840030618155870E-030
  -84.329999999999998         -4.2367825669173347E-030
  -84.314999999999998         -3.0720004490943166E-030
  -84.299999999999997         -1.6791028379462062E-030
  -84.284999999999997         -5.0513707646784094E-032
  -84.269999999999996          1.8176951265409229E-030
  -84.254999999999995          3.9251005219154493E-030
  -84.239999999999995          6.2662026577927725E-030
  -84.224999999999994          8.8296921500434051E-030
  -84.209999999999994          1.1597726687133730E-029
  -84.194999999999993          1.4545239839447717E-029
  -84.180000000000007          1.7639301966518266E-029
  -84.165000000000006          2.0838555979738816E-029
  -84.150000000000006          2.4092757677052395E-029
  -84.135000000000005          2.7342463531652045E-029
  -84.120000000000005          3.0518869696274532E-029
  -84.105000000000004          3.3543852628285110E-029
  -84.090000000000003          3.6330242932841492E-029
  -84.075000000000003          3.8782351984363011E-029
  -84.060000000000002          4.0796796465288069E-029
  -84.045000000000002          4.2263620822119845E-029
  -84.030000000000001          4.3067759768477816E-029
  -84.015000000000001          4.3090870927810463E-029
  -84.000000000000000          4.2213495486051629E-029
  -83.984999999999999          4.0317604030265758E-029
  -83.969999999999999          3.7289479425033397E-029
  -83.954999999999998          3.3022957791435740E-029
  -83.939999999999998          2.7422958375530817E-029
  -83.924999999999997          2.0409290269259206E-029
  -83.909999999999997          1.1920671284570166E-029
  -83.894999999999996          1.9189018047229915E-030
  -83.879999999999995         -9.6068989221517205E-030
  -83.864999999999995         -2.2636068526552956E-029
  -83.849999999999994         -3.7112305907211924E-029
  -83.834999999999994         -5.2939793792446205E-029
  -83.819999999999993         -6.9979699716655323E-029
  -83.805000000000007         -8.8047167507099022E-029
  -83.790000000000006         -1.0690888880660802E-028
  -83.775000000000006         -1.2628148107945895E-028
  -83.760000000000005         -1.4583072927645881E-028
  -83.745000000000005         -1.6517184463178117E-028
  -83.730000000000004         -1.8387092716601774E-028
  -83.715000000000003         -2.0144758976572758E-028
  -83.700000000000003         -2.1737903874750678E-028
  -83.685000000000002         -2.3110552664714348E-028
  -83.670000000000002         -2.4203727353035557E-028
  -83.655000000000001         -2.4956298923279452E-028
  -83.640000000000001         -2.5305980393632121E-028
  -83.625000000000000         -2.5190463115567774E-028
  -83.609999999999999         -2.4548709554323920E-028
  -83.594999999999999         -2.3322354402935904E-028
  -83.579999999999998         -2.1457235696542695E-028
  -83.564999999999998         -1.8904996945359376E-028
  -83.549999999999997         -1.5624785564146847E-028
  -83.534999999999997         -1.1584976579512056E-028
  -83.519999999999996         -6.7649210131856319E-029
  -83.504999999999995         -1.1566689874690099E-029
  -83.489999999999995          5.2333583268326018E-029
  -83.474999999999994          1.2382790651562038E-028
  -83.459999999999994          2.0251861144486347E-028
  -83.444999999999993          2.8782132276267961E-028
  -83.430000000000007          3.7895435365289061E-028
  -83.415000000000006          4.7493056872250081E-028
  -83.400000000000006          5.7455228028734438E-028
  -83.385000000000005          6.7640927429389239E-028
  -83.370000000000005          7.7888054365620271E-028
  -83.355000000000004          8.8013996974925597E-028
  -83.340000000000003          9.7816614465167194E-028
  -83.325000000000003          1.0707562859895577E-027
  -83.310000000000002          1.1555453517912058E-027
  -83.295000000000002          1.2300292479429238E-027
  -83.280000000000001          1.2915930430627201E-027
  -83.265000000000001          1.3375434204198663E-027
  -83.250000000000000          1.3651466187548019E-027
  -83.234999999999999          1.3716695508834470E-027
  -83.219999999999999          1.3544263149053592E-027
  -83.204999999999998          1.3108280757892932E-027
  -83.189999999999998          1.2384363173361630E-027
  -83.174999999999997          1.1350201385948877E-027
  -83.159999999999997          9.9861528361518673E-028
  -83.144999999999996          8.2758606009529205E-028
  -83.129999999999995          6.2068850988412393E-028
  -83.114999999999995          3.7713471096730925E-028
  -83.099999999999994          9.6657061397606464E-029
  -83.084999999999994         -2.2042793029421760E-028
  -83.069999999999993         -5.7315723293212749E-028
  -83.055000000000007         -9.5986162497772955E-028
  -83.040000000000006         -1.3781091865419974E-027
  -83.025000000000006         -1.8246537627036664E-027
  -83.010000000000005         -2.2953887893388169E-027
  -82.995000000000005         -2.7853095448939641E-027
  -82.980000000000004         -3.2884822392104509E-027
  -82.965000000000003         -3.7980251394109931E-027
  -82.950000000000003         -4.3061016365518787E-027
  -82.935000000000002         -4.8039256382268134E-027
  -82.920000000000002         -5.2817839093542745E-027
  -82.905000000000001         -5.7290761315203546E-027
  -82.890000000000001         -6.1343746068070376E-027
  -82.875000000000000         -6.4855051468498631E-027
  -82.859999999999999         -6.7696522286128893E-027
  -82.844999999999999         -6.9734895724389234E-027
  -82.829999999999998         -7.0833399942349048E-027
  -82.814999999999998         -7.0853614503045336E-027
  -82.799999999999997         -6.9657627415020418E-027
  -82.784999999999997         -6.7110561952408966E-027
  -82.769999999999996         -6.3083323031038703E-027
  -82.754999999999995         -5.7455740326099645E-027
  -82.739999999999995         -5.0119942501406662E-027
  -82.724999999999994         -4.0984024180013594E-027
  -82.709999999999994         -2.9975978693159693E-027
  -82.694999999999993         -1.7047794533261328E-027
  -82.680000000000007         -2.1797256220811831E-028
  -82.665000000000006          1.4615366198729637E-027
  -82.650000000000006          3.3287673010431876E-027
  -82.635000000000005          5.3746179697196169E-027
  -82.620000000000005          7.5854630567317006E-027
  -82.605000000000004          9.9427789678743224E-027
  -82.590000000000003          1.2422815135073299E-026
  -82.575000000000003          1.4996327467681076E-026
  -82.560000000000002          1.7628381907622404E-026
  -82.545000000000002          2.0278251969921291E-026
  -82.530000000000001          2.2899417972329031E-026
  -82.515000000000001          2.5439687213352729E-026
  -82.500000000000000          2.7841455898727742E-026
  -82.484999999999999          3.0042125142285661E-026
  -82.469999999999999          3.1974655633778301E-026
  -82.454999999999998          3.3568336470111495E-026
  -82.439999999999998          3.4749695735022803E-026
  -82.424999999999997          3.5443628323656946E-026
  -82.409999999999997          3.5574690167488431E-026
  -82.394999999999996          3.5068592755958397E-026
  -82.379999999999995          3.3853860976970747E-026
  -82.364999999999995          3.1863660439223376E-026
  -82.349999999999994          2.9037775787447050E-026
  -82.334999999999994          2.5324686084513479E-026
  -82.319999999999993          2.0683743423388402E-026
  -82.305000000000007          1.5087405465123127E-026
  -82.290000000000006          8.5234602731262824E-027
  -82.275000000000006          9.9721917699850043E-028
  -82.260000000000005         -7.4663866601301266E-027
  -82.245000000000005         -1.6820865674588080E-026
  -82.230000000000004         -2.6996444120792131E-026
  -82.215000000000003         -3.7898618927487133E-026
  -82.200000000000003         -4.9407057991747771E-026
  -82.185000000000002         -6.1374925333126050E-026
  -82.170000000000002         -7.3628640737594239E-026
  -82.155000000000001         -8.5968249536094187E-026
  -82.140000000000001         -9.8168297747104059E-026
  -82.125000000000000         -1.0997941287993668E-025
  -82.109999999999999         -1.2113051644305967E-025
  -82.094999999999999         -1.3133176984653834E-025
  -82.079999999999998         -1.4027822904669819E-025
  -82.064999999999998         -1.4765423874788602E-025
  -82.049999999999997         -1.5313852302049893E-025
  -82.034999999999997         -1.5640992919445047E-025
  -82.019999999999996         -1.5715382502807388E-025
  -82.004999999999995         -1.5506903821889777E-025
  -81.989999999999995         -1.4987528895248742E-025
  -81.974999999999994         -1.4132096757793228E-025
  -81.960000000000008         -1.2919114647641454E-025
  -81.944999999999993         -1.1331571518929429E-025
  -81.930000000000007         -9.3577447753460516E-026
  -81.915000000000006         -6.9919829680625118E-026
  -81.900000000000006         -4.2354490506164285E-026
  -81.885000000000005         -1.0968050855256778E-026
  -81.870000000000005          2.4071830137090694E-026
  -81.855000000000004          6.2511384237685892E-026
  -81.840000000000003          1.0400681138104032E-025