  -90.000000000000000          0.0000000000000000     
  -89.984999999999999          0.0000000000000000     
  -89.969999999999999          0.0000000000000000     
  -89.954999999999998          0.0000000000000000     
  -89.939999999999998          0.0000000000000000     
  -89.924999999999997          0.0000000000000000     
  -89.909999999999997         -2.1825487464901631E-027
  -89.894999999999996         -2.8125787869765429E-026
  -89.879999999999995         -1.9489138998989158E-025
  -89.864999999999995         -9.6322598654563293E-025
  -89.849999999999994         -3.8028664989643629E-024
  -89.834999999999994         -1.2742370805560946E-023
  -89.819999999999993         -3.7613856682129454E-023
  -89.805000000000007         -1.0029362347725000E-022
  -89.790000000000006         -2.4589710756566443E-022
  -89.775000000000006         -5.6171490777648048E-022
  -89.760000000000005         -1.2076607731849583E-021
  -89.745000000000005         -2.4630964774030391E-021
  -89.730000000000004         -4.7960291383961836E-021
  -89.715000000000003         -8.9617264551877864E-021
  -89.700000000000003         -1.6138628177446286E-020
  -89.685000000000002         -2.8109862267713598E-020
  -89.670000000000002         -4.7498510536862005E-020
  -89.655000000000001         -7.8063780904756839E-020
  -89.640000000000001         -1.2506332381766464E-019
  -89.625000000000000         -1.9568381691559109E-019
  -89.609999999999999         -2.9953742849617769E-019
  -89.594999999999999         -4.4921640657250161E-019
  -89.579999999999998         -6.6089114984299712E-019
  -89.564999999999998         -9.5492862859691559E-019
  -89.549999999999997         -1.3565010345487996E-018
  -89.534999999999997         -1.8961440502037740E-018
  -89.519999999999996         -2.6102166061817600E-018
  -89.504999999999995         -3.5412069380441207E-018
  -89.489999999999995         -4.7378233693658879E-018
  -89.474999999999994         -6.2548018888457674E-018
  -89.459999999999994         -8.1523678625225200E-018
  -89.444999999999993         -1.0495286637226904E-017
  -89.430000000000007         -1.3351434586073489E-017
  -89.415000000000006         -1.6789855647611464E-017
  -89.400000000000006         -2.0878248764714007E-017
  -89.385000000000005         -2.5679871747545497E-017
  -89.370000000000005         -3.1249831368514218E-017
  -89.355000000000004         -3.7630791949254429E-017
  -89.340000000000003         -4.4848081760122505E-017
  -89.325000000000003         -5.2904288222074510E-017
  -89.310000000000002         -6.1773305514978272E-017
  -89.295000000000002         -7.1393965286896719E-017
  -89.280000000000001         -8.1663214068395545E-017
  -89.265000000000001         -9.2429009445442603E-017
  -89.250000000000000         -1.0348290190367453E-016
  -89.234999999999999         -1.1455237844464695E-016
  -89.219999999999999         -1.2529307385318670E-016
  -89.204999999999998         -1.3528088932051539E-016
  -89.189999999999998         -1.4400411106737300E-016
  -89.174999999999997         -1.5085574734282324E-016
  -89.159999999999997         -1.5512610365107520E-016
  -89.144999999999996         -1.5599599325301556E-016
  -89.129999999999995         -1.5253090057980643E-016
  -89.114999999999995         -1.4367640196101419E-016
  -89.099999999999994         -1.2825557158620862E-016
  -89.084999999999994         -1.0496894180029339E-016
  -89.069999999999993         -7.2397805208511472E-017
  -89.055000000000007         -2.9011871060194850E-017
  -89.040000000000006          2.6817830733679598E-017
  -89.025000000000006          9.6799659748605390E-017
  -89.010000000000005          1.8269464380403852E-016
  -88.995000000000005          2.8628133371353130E-016
  -88.980000000000004          4.0931128111544232E-016
  -88.965000000000003          5.5345455704907125E-016
  -88.950000000000003          7.2023523848432458E-016
  -88.935000000000002          9.1095608856385903E-016
  -88.920000000000002          1.1266143827039481E-015
  -88.905000000000001          1.3678086026213863E-015
  -88.890000000000001          1.6346395452368967E-015
  -88.875000000000000          1.9266065081995336E-015
  -88.859999999999999          2.2425034224715255E-015
  -88.844999999999999          2.5803185848031433E-015
  -88.829999999999998          2.9371411664711475E-015
  -88.814999999999998          3.3090820156982201E-015
  -88.799999999999997          3.6912116124895780E-015
  -88.784999999999997          4.0775225874250566E-015
  -88.769999999999996          4.4609206160549277E-015
  -88.754999999999995          4.8332483475806588E-015
  -88.739999999999995          5.1853489323259571E-015
  -88.724999999999994          5.5071706303057560E-015
  -88.709999999999994          5.7879108068272477E-015
  -88.694999999999993          6.0162060913865421E-015
  -88.680000000000007          6.1803627706303200E-015
  -88.665000000000006          6.2686219096683236E-015
  -88.650000000000006          6.2694608958025790E-015
  -88.635000000000005          6.1719127699485111E-015
  -88.620000000000005          5.9659058868467927E-015
  -88.605000000000004          5.6426023047257724E-015
  -88.590000000000003          5.1947285516673776E-015
  -88.575000000000003          4.6168826750504939E-015
  -88.560000000000002          3.9058052920940868E-015
  -88.545000000000002          3.0605991831487772E-015
  -88.530000000000001          2.0828874750997411E-015
  -88.515000000000001          9.7689654471642224E-016
  -88.500000000000000         -2.5054429898482312E-016
  -88.484999999999999         -1.5900920708375433E-015
  -88.469999999999999         -3.0300714804550218E-015
  -88.454999999999998         -4.5567501120590166E-015
  -88.439999999999998         -6.1546985193614619E-015
  -88.424999999999997         -7.8072297297849744E-015
  -88.409999999999997         -9.4969071465938505E-015
  -88.394999999999996         -1.1206096814375677E-014
  -88.379999999999995         -1.2917558224522039E-014
  -88.364999999999995         -1.4615033426643338E-014
  -88.349999999999994         -1.6283827246137660E-014
  -88.334999999999994         -1.7911338373848701E-014
  -88.319999999999993         -1.9487534551549182E-014
  -88.305000000000007         -2.1005319337207007E-014
  -88.290000000000006         -2.2460792991133016E-014
  -88.275000000000006         -2.3853376142791288E-014
  -88.260000000000005         -2.5185786073876615E-014
  -88.245000000000005         -2.6463836818538949E-014
  -88.230000000000004         -2.7696088491743244E-014
  -88.215000000000003         -2.8893313658512679E-014
  -88.200000000000003         -3.0067812931307281E-014
  -88.185000000000002         -3.1232574713340247E-014
  -88.170000000000002         -3.2400318051347549E-014
  -88.155000000000001         -3.3582410127481338E-014
  -88.140000000000001         -3.4787744787687785E-014
  -88.125000000000000         -3.6021570248108079E-014
  -88.109999999999999         -3.7284316801479422E-014
  -88.094999999999999         -3.8570488898040031E-014
  -88.079999999999998         -3.9867658870387790E-014
  -88.064999999999998         -4.1155592795478688E-014
  -88.049999999999997         -4.2405559315741859E-014
  -88.034999999999997         -4.3579889181947010E-014
  -88.019999999999996         -4.4631795682219602E-014
  -88.004999999999995         -4.5505493226653468E-014
  -87.989999999999995         -4.6136671685761271E-014
  -87.974999999999994         -4.6453279048917773E-014
  -87.959999999999994         -4.6376730987408507E-014
  -87.944999999999993         -4.5823425349339475E-014
  -87.930000000000007         -4.4706639513438992E-014
  -87.915000000000006         -4.2938753003511285E-014
  -87.900000000000006         -4.0433768258487518E-014
  -87.885000000000005         -3.7110078736097424E-014
  -87.870000000000005         -3.2893426751921112E-014
  -87.855000000000004         -2.7719969738658132E-014
  -87.840000000000003         -2.1539421044295889E-014
  -87.825000000000003         -1.4318085698192609E-014
  -87.810000000000002         -6.0417809806794648E-015
  -87.795000000000002          3.2815208341439861E-015
  -87.780000000000001          1.3619412265715794E-014
  -87.765000000000001          2.4913246446833966E-014
  -87.750000000000000          3.7076922478410101E-014
  -87.734999999999999          4.9996333163987786E-014
  -87.719999999999999          6.3529619119626762E-014
  -87.704999999999998          7.7508210624428059E-014
  -87.689999999999998          9.1738824924223611E-014
  -87.674999999999997          1.0600634275546514E-013
  -87.659999999999997          1.2007764032227752E-013
  -87.644999999999996          1.3370630557590912E-013
  -87.629999999999995          1.4663827606602869E-013
  -87.614999999999995          1.5861810020827150E-013
  -87.599999999999994          1.6939597782209687E-013
  -87.584999999999994          1.7873517336314260E-013
  -87.569999999999993          1.8641978152128535E-013
  -87.555000000000007          1.9226254702880974E-013
  -87.540000000000006          1.9611248118066998E-013
  -87.525000000000006          1.9786213954157278E-013
  -87.510000000000005          1.9745415426406648E-013
  -87.495000000000005          1.9488681772972943E-013
  -87.480000000000004          1.9021843291038704E-013
  -87.465000000000003          1.8357022716145033E-013
  -87.450000000000003          1.7512759905441433E-013
  -87.435000000000002          1.6513944075050024E-013
  -87.420000000000002          1.5391550881038718E-013
  -87.405000000000001          1.4182165370465322E-013
  -87.390000000000001          1.2927300289261590E-013
  -87.375000000000000          1.1672500260188207E-013
  -87.359999999999999          1.0466248771519651E-013
  -87.344999999999999          9.3587030486341760E-014
  -87.329999999999998          8.4002690057833479E-014
  -87.314999999999998          7.6400542251171821E-014
  -87.299999999999997          7.1242389429199832E-014
  -87.284999999999997          6.8944009572538545E-014
  -87.269999999999996          6.9858486671185022E-014
  -87.254999999999995          7.4260089993460204E-014
  -87.239999999999995          8.2329163018229901E-014
  -87.224999999999994          9.4138665775438807E-014
  -87.209999999999994          1.0964273651319079E-013
  -87.194999999999993          1.2866782834498880E-013
  -87.180000000000007          1.5090678001910413E-013
  -87.165000000000006          1.7591623416215313E-013
  -87.150000000000006          2.0311764694237039E-013
  -87.135000000000005          2.3180207211169479E-013
  -87.120000000000005          2.6113882107062225E-013
  -87.105000000000004          2.9018793119318931E-013
  -87.090000000000003          3.1791648306966902E-013
  -87.075000000000003          3.4321829232852874E-013
  -87.060000000000002          3.6493675919721524E-013
  -87.045000000000002          3.8189034725320814E-013
  -87.030000000000001          3.9290036610468981E-013
  -87.015000000000001          3.9682008221887666E-013
  -87.000000000000000          3.9256458869187105E-013
  -86.984999999999999          3.7914091896400215E-013
  -86.969999999999999          3.5567721185826573E-013
  -86.954999999999998          3.2145033163066827E-013
  -86.939999999999998          2.7591137382633468E-013
  -86.924999999999997          2.1870782366140845E-013
  -86.909999999999997          1.4970209588020117E-013
  -86.894999999999996          6.8985609054644098E-014
  -86.879999999999995         -2.3112046131090747E-014
  -86.864999999999995         -1.2601927151540543E-013
  -86.849999999999994         -2.3892419618275207E-013
  -86.834999999999994         -3.6078225910257666E-013
  -86.819999999999993         -4.9032940251450552E-013
  -86.805000000000007         -6.2610067954813053E-013
  -86.790000000000006         -7.6645439127387416E-013
  -86.775000000000006         -9.0960084516561457E-013
  -86.760000000000005         -1.0536348269557516E-012
  -86.745000000000005         -1.1965721382484196E-012
  -86.730000000000004         -1.3363875978056328E-012
  -86.715000000000003         -1.4710552654478848E-012
  -86.700000000000003         -1.5985892080558339E-012
  -86.685000000000002         -1.7170824224282955E-012
  -86.670000000000002         -1.8247456497200165E-012
  -86.655000000000001         -1.9199422867516303E-012
  -86.640000000000001         -2.0012192857715716E-012
  -86.625000000000000         -2.0673348016114756E-012
  -86.609999999999999         -2.1172783578465859E-012
  -86.594999999999999         -2.1502864593070381E-012
  -86.579999999999998         -2.1658501814930675E-012
  -86.564999999999998         -2.1637175558197885E-012
  -86.549999999999997         -2.1438872812445942E-012
  -86.534999999999997         -2.1065965812028242E-012
  -86.519999999999996         -2.0523029890112676E-012
  -86.504999999999995         -1.9816594112181951E-012
  -86.489999999999995         -1.8954852878255712E-012
  -86.474999999999994         -1.7947335241227935E-012
  -86.459999999999994         -1.6804546035947832E-012
  -86.444999999999993         -1.5537597250481205E-012
  -86.430000000000007         -1.4157832892158773E-012
  -86.415000000000006         -1.2676477706072276E-012
  -86.400000000000006         -1.1104308661816220E-012
  -86.385000000000005         -9.4513708925186846E-013
  -86.370000000000005         -7.7267478439807524E-013
  -86.355000000000004         -5.9383986443506398E-013
  -86.340000000000003         -4.0930683863939221E-013
  -86.325000000000003         -2.1962768788959947E-013
  -86.310000000000002         -2.5239218606255311E-014
  -86.295000000000002          1.7352146195609430E-013
  -86.280000000000001          3.7639349644881526E-013
  -86.265000000000001          5.8316182828879737E-013
  -86.250000000000000          7.9362037774810545E-013
  -86.234999999999999          1.0075307558740643E-012
  -86.219999999999999          1.2245775140445891E-012
  -86.204999999999998          1.4443223093213442E-012
  -86.189999999999998          1.6661589642696928E-012
  -86.174999999999997          1.8892710746537533E-012
  -86.159999999999997          2.1125948213018830E-012
  -86.144999999999996          2.3347896966480208E-012
  -86.129999999999995          2.5542172543691066E-012
  -86.114999999999995          2.7689315684059634E-012
  -86.099999999999994          2.9766831360911183E-012
  -86.084999999999994          3.1749357917026932E-012
  -86.069999999999993          3.3608974978061035E-012
  -86.055000000000007          3.5315676164687781E-012
  -86.040000000000006          3.6837984919435574E-012
  -86.025000000000006          3.8143685258951177E-012
  -86.010000000000005          3.9200725998611574E-012
  -85.995000000000005          3.9978190029266170E-012
  -85.980000000000004          4.0447354666961477E-012
  -85.965000000000003          4.0582823560009196E-012
  -85.950000000000003          4.0363675943289046E-012
  -85.935000000000002          3.9774589871699462E-012
  -85.920000000000002          3.8806922085521389E-012
  -85.905000000000001          3.7459701139608281E-012
  -85.890000000000001          3.5740486091506707E-012
  -85.875000000000000          3.3666056054038052E-012
  -85.859999999999999          3.1262900254680481E-012
  -85.844999999999999          2.8567458728451234E-012
  -85.829999999999998          2.5626120149502274E-012
  -85.814999999999998          2.2494913917703308E-012
  -85.799999999999997          1.9238911679042570E-012
  -85.784999999999997          1.5931319848408454E-012
  -85.769999999999996          1.2652266387358502E-012
  -85.754999999999995          9.4873002683126817E-013
  -85.739999999999995          6.5256009146655303E-013
  -85.724999999999994          3.8579618557958717E-013
  -85.709999999999994          1.5745525272069932E-013
  -85.694999999999993         -2.3747530905702391E-014
  -85.680000000000007         -1.4964891576364076E-013
  -85.665000000000006         -2.1289258333653804E-013
  -85.650000000000006         -2.0718240220218148E-013
  -85.635000000000005         -1.2752693595140946E-013
  -85.620000000000005          2.9531322591307141E-014
  -85.605000000000004          2.6570965479949527E-013
  -85.590000000000003          5.8080813379254859E-013
  -85.575000000000003          9.7256859683814145E-013
  -85.560000000000002          1.4365753595382835E-012
  -85.545000000000002          1.9662025913663728E-012
  -85.530000000000001          2.5526128519942626E-012
  -85.515000000000001          3.1848094040470842E-012
  -85.500000000000000          3.8497438743789747E-012
  -85.484999999999999          4.5324811612235116E-012
  -85.469999999999999          5.2164171419899485E-012
  -85.454999999999998          5.8835518922106811E-012
  -85.439999999999998          6.5148082241395233E-012
  -85.424999999999997          7.0903955450007938E-012
  -85.409999999999997          7.5902097107505284E-012
  -85.394999999999996          7.9942606354133083E-012
  -85.379999999999995          8.2831198497390623E-012
  -85.364999999999995          8.4383776008389866E-012
  -85.349999999999994          8.4430960486936435E-012
  -85.334999999999994          8.2822568248097639E-012
  -85.319999999999993          7.9431799679396953E-012
  -85.305000000000007          7.4159072979695928E-012
  -85.290000000000006          6.6935515290189596E-012
  -85.275000000000006          5.7725794630480998E-012
  -85.260000000000005          4.6530396723143408E-012
  -85.245000000000005          3.3387177571231330E-012
  -85.230000000000004          1.8372185283527243E-012
  -85.215000000000003          1.5996595324405116E-013
  -85.200000000000003         -1.6778779971318714E-012
  -85.185000000000002         -3.6575755445189539E-012
  -85.170000000000002         -5.7570584584276663E-012
  -85.155000000000001         -7.9512455647412494E-012
  -85.140000000000001         -1.0212435931633568E-011
  -85.125000000000000         -1.2510760656614384E-011
  -85.109999999999999         -1.4814694609954770E-011
  -85.094999999999999         -1.7091605908348129E-011
  -85.079999999999998         -1.9308339649359851E-011
  -85.064999999999998         -2.1431818125750013E-011
  -85.049999999999997         -2.3429654050222126E-011
  -85.034999999999997         -2.5270743830851927E-011
  -85.019999999999996         -2.6925850438175303E-011
  -85.004999999999995         -2.8368146373636272E-011
  -84.989999999999995         -2.9573708065777637E-011
  -84.974999999999994         -3.0521959959450840E-011
  -84.959999999999994         -3.1196042277192859E-011
  -84.944999999999993         -3.1583114595834516E-011
  -84.930000000000007         -3.1674569217488013E-011
  -84.915000000000006         -3.1466159539084160E-011
  -84.900000000000006         -3.0958048624629697E-011
  -84.885000000000005         -3.0154771041290829E-011
  -84.870000000000005         -2.9065094081515142E-011
  -84.855000000000004         -2.7701825208725772E-011
  -84.840000000000003         -2.6081525827947871E-011
  -84.825000000000003         -2.4224167810560360E-011
  -84.810000000000002         -2.2152729303726026E-011
  -84.795000000000002         -1.9892748906458202E-011
  -84.780000000000001         -1.7471845151217913E-011
  -84.765000000000001         -1.4919213434105849E-011
  -84.750000000000000         -1.2265111669351736E-011
  -84.734999999999999         -9.5403476785271835E-012
  -84.719999999999999         -6.7757821922698191E-012
  -84.704999999999998         -4.0018535360508700E-012
  -84.689999999999998         -1.2481353841090059E-012
  -84.674999999999997          1.4570632027310904E-012
  -84.659999999999997          4.0870510101265189E-012
  -84.644999999999996          6.6170558615796793E-012
  -84.629999999999995          9.0244695397090346E-012
  -84.614999999999995          1.1289035678485604E-011
  -84.599999999999994          1.3392987240068432E-011
  -84.584999999999994          1.5321124577361012E-011
  -84.569999999999993          1.7060844056948632E-011
  -84.555000000000007          1.8602131987566217E-011
  -84.540000000000006          1.9937515180479259E-011
  -84.525000000000006          2.1061980284842186E-011
  -84.510000000000005          2.1972876643183703E-011
  -84.495000000000005          2.2669798330210433E-011
  -84.480000000000004          2.3154469661057497E-011
  -84.465000000000003          2.3430630699539101E-011
  -84.450000000000003          2.3503921031675645E-011
  -84.435000000000002          2.3381791294796450E-011
  -84.420000000000002          2.3073426849706813E-011
  -84.405000000000001          2.2589688800089824E-011
  -84.390000000000001          2.1943084502207277E-011
  -84.375000000000000          2.1147748482941431E-011
  -84.359999999999999          2.0219451113412390E-011
  -84.344999999999999          1.9175614221489390E-011
  -84.329999999999998          1.8035330173749031E-011
  -84.314999999999998          1.6819391365774372E-011
  -84.299999999999997          1.5550297161048832E-011
  -84.284999999999997          1.4252254758317928E-011
  -84.269999999999996          1.2951133221417166E-011
  -84.254999999999995          1.1674394957694734E-011
  -84.239999999999995          1.0450966481112545E-011
  -84.224999999999994          9.3110562662812590E-012
  -84.209999999999994          8.2859049482797431E-012
  -84.194999999999993          7.4074643988120137E-012
  -84.180000000000007          6.7080017755738464E-012
  -84.165000000000006          6.2196276774673098E-012
  -84.150000000000006          5.9737501403867022E-012
  -84.135000000000005          6.0004601114271860E-012
  -84.120000000000005          6.3278531720056819E-012
  -84.105000000000004          6.9813035560861714E-012
  -84.090000000000003          7.9826978360841849E-012
  -84.075000000000003          9.3496503941747910E-012
  -84.060000000000002          1.1094719760962324E-011
  -84.045000000000002          1.3224639265618787E-011
  -84.030000000000001          1.5739598860364801E-011
  -84.015000000000001          1.8632581588740038E-011
  -84.000000000000000          2.1888803269920487E-011
  -83.984999999999999          2.5485256266444267E-011
  -83.969999999999999          2.9390385958283360E-011
  -83.954999999999998          3.3563939821901201E-011
  -83.939999999999998          3.7956963960805723E-011
  -83.924999999999997          4.2512014741813431E-011
  -83.909999999999997          4.7163547373108017E-011
  -83.894999999999996          5.1838519588010001E-011
  -83.879999999999995          5.6457203495563490E-011
  -83.864999999999995          6.0934181311811386E-011
  -83.849999999999994          6.5179549257887714E-011
  -83.834999999999994          6.9100308808245359E-011
  -83.819999999999993          7.2601875900080159E-011
  -83.805000000000007          7.5589756676208708E-011
  -83.790000000000006          7.7971323841907747E-011
  -83.775000000000006          7.9657641594010897E-011
  -83.760000000000005          8.0565332183368810E-011
  -83.745000000000005          8.0618442477309316E-011
  -83.730000000000004          7.9750227255370731E-011
  -83.715000000000003          7.7904911688353451E-011
  -83.700000000000003          7.5039238711660516E-011
  -83.685000000000002          7.1123891498547920E-011
  -83.670000000000002          6.6144686949876075E-011
  -83.655000000000001          6.0103526322574652E-011
  -83.640000000000001          5.3019096057926873E-011
  -83.625000000000000          4.4927207787370804E-011
  -83.609999999999999          3.5880874660332296E-011
  -83.594999999999999          2.5950038992639257E-011
  -83.579999999999998          1.5220946031346827E-011
  -83.564999999999998          3.7952111071881678E-012
  -83.549999999999997         -8.2114610250316744E-012
  -83.534999999999997         -2.0670853917437171E-011
  -83.519999999999996         -3.3444101654733771E-011
  -83.504999999999995         -4.6383792640103394E-011
  -83.489999999999995         -5.9336306701407437E-011
  -83.474999999999994         -7.2144318297162613E-011
  -83.459999999999994         -8.4649412479542718E-011
  -83.444999999999993         -9.6694763307425546E-011
  -83.430000000000007         -1.0812788164837883E-010
  -83.415000000000006         -1.1880327277502545E-010
  -83.400000000000006         -1.2858497600021224E-010
  -83.385000000000005         -1.3734911818996665E-010
  -83.370000000000005         -1.4498605094281913E-010
  -83.355000000000004         -1.5140240450239872E-010
  -83.340000000000003         -1.5652279472533337E-010
  -83.325000000000003         -1.6029121086003073E-010
  -83.310000000000002         -1.6267209801412719E-010
  -83.295000000000002         -1.6365096777715138E-010
  -83.280000000000001         -1.6323468965406818E-010
  -83.265000000000001         -1.6145142167633963E-010
  -83.250000000000000         -1.5835004141262488E-010
  -83.234999999999999         -1.5399925779036039E-010
  -83.219999999999999         -1.4848636209485733E-010
  -83.204999999999998         -1.4191561814591580E-010
  -83.189999999999998         -1.3440634716310740E-010
  -83.174999999999997         -1.2609074895308936E-010
  -83.159999999999997         -1.1711148717452602E-010
  -83.144999999999996         -1.0761910113066264E-010
  -83.129999999999995         -9.7769341234066331E-011
  -83.114999999999995         -8.7720351815701036E-011
  -83.099999999999994         -7.7629895567365992E-011
  -83.084999999999994         -6.7652612678603674E-011
  -83.069999999999993         -5.7937338954205941E-011
  -83.055000000000007         -4.8624597404067771E-011
  -83.040000000000006         -3.9844263305388594E-011
  -83.025000000000006         -3.1713440901137702E-011
  -83.010000000000005         -2.4334617654275803E-011
  -82.995000000000005         -1.7794099527179696E-011
  -82.980000000000004         -1.2160749837675233E-011
  -82.965000000000003         -7.4850663861480982E-012
  -82.950000000000003         -3.7985821085828597E-012
  -82.935000000000002         -1.1136022659563594E-012
  -82.920000000000002          5.7672806417705114E-013
  -82.905000000000001          1.2980419690500344E-012
  -82.890000000000001          1.0940664606912121E-012
  -82.875000000000000          2.5662685951971520E-014
  -82.859999999999999         -1.8303861031021551E-012
  -82.844999999999999         -4.3828079186736257E-012
  -82.829999999999998         -7.5274656299861853E-012
  -82.814999999999998         -1.1149133699595026E-011
  -82.799999999999997         -1.5123400795569175E-011
  -82.784999999999997         -1.9318654315148009E-011
  -82.769999999999996         -2.3598119985868138E-011
  -82.754999999999995         -2.7821925319138074E-011
  -82.739999999999995         -3.1849151788110319E-011
  -82.724999999999994         -3.5539845372190015E-011
  -82.709999999999994         -3.8756980264009755E-011
  -82.694999999999993         -4.1368328901336682E-011
  -82.680000000000007         -4.3248234854464940E-011
  -82.665000000000006         -4.4279271221858707E-011
  -82.650000000000006         -4.4353770656258007E-011
  -82.635000000000005         -4.3375209674012538E-011
  -82.620000000000005         -4.1259468064325233E-011
  -82.605000000000004         -3.7935914826148220E-011
  -82.590000000000003         -3.3348372674435467E-011
  -82.575000000000003         -2.7455889992089588E-011
  -82.560000000000002         -2.0233401759606195E-011
  -82.545000000000002         -1.1672205736668051E-011
  -82.530000000000001         -1.7802961795737593E-012
  -82.515000000000001          9.4174537959568205E-012
  -82.500000000000000          2.1879264025526091E-011
  -82.484999999999999          3.5546576099276805E-011
  -82.469999999999999          5.0344322460871282E-011
  -82.454999999999998          6.6181379820839936E-011
  -82.439999999999998          8.2951132074349232E-011
  -82.424999999999997          1.0053222837536069E-010
  -82.409999999999997          1.1878950600952010E-010
  -82.394999999999996          1.3757502081990225E-010
  -82.379999999999995          1.5672928233012584E-010
  -82.364999999999995          1.7608266233981595E-010
  -82.349999999999994          1.9545688678679340E-010
  -82.334999999999994          2.1466678434833852E-010
  -82.319999999999993          2.3352203504245495E-010
  -82.305000000000007          2.5182922414046516E-010
  -82.290000000000006          2.6939381281287922E-010
  -82.275000000000006          2.8602240020880743E-010
  -82.260000000000005          3.0152497165758518E-010
  -82.245000000000005          3.1571723013712472E-010
  -82.230000000000004          3.2842292774226678E-010
  -82.215000000000003          3.3947622490870799E-010
  -82.200000000000003          3.4872402188135254E-010
  -82.185000000000002          3.5602820691593706E-010
  -82.170000000000002          3.6126776570277741E-010
  -82.155000000000001          3.6434091854609107E-010
  -82.140000000000001          3.6516673018738288E-010
  -82.125000000000000          3.6368688616228440E-010
  -82.109999999999999          3.5986696955703223E-010
  -82.094999999999999          3.5369754347591709E-010
  -82.079999999999998          3.4519481717509848E-010
  -82.064999999999998          3.3440111790739024E-010
  -82.049999999999997          3.2138480765553368E-010
  -82.034999999999997          3.0624000557644138E-010
  -82.019999999999996          2.8908564431162631E-010
  -82.004999999999995          2.7006438751975281E-010
  -81.989999999999995          2.4934107556440210E-010
  -81.974999999999994          2.2710069935705235E-010
  -81.960000000000008          2.0354604113315133E-010
  -81.944999999999993          1.7889506542800859E-010
  -81.930000000000007          1.5337790759684111E-010
  -81.915000000000006          1.2723369580136534E-010
  -81.900000000000006          1.0070707462395134E-010
  -81.885000000000005          7.4044652353943974E-011
  -81.870000000000005          4.7491326843340786E-011
  -81.855000000000004          2.1286578402723855E-011
  -81.840000000000003         -4.3391839600614990E-012