  -90.000000000000000          0.0000000000000000     
  -89.984999999999999          0.0000000000000000     
  -89.969999999999999          0.0000000000000000     
  -89.954999999999998          0.0000000000000000     
  -89.939999999999998          0.0000000000000000     
  -89.924999999999997          0.0000000000000000     
  -89.909999999999997          0.0000000000000000     
  -89.894999999999996          0.0000000000000000     
  -89.879999999999995          0.0000000000000000     
  -89.864999999999995          0.0000000000000000     
  -89.849999999999994          0.0000000000000000     
  -89.834999999999994          0.0000000000000000     
  -89.819999999999993          0.0000000000000000     
  -89.805000000000007          0.0000000000000000     
  -89.790000000000006          0.0000000000000000     
  -89.775000000000006          0.0000000000000000     
  -89.760000000000005          0.0000000000000000     
  -89.745000000000005          0.0000000000000000     
  -89.730000000000004          0.0000000000000000     
  -89.715000000000003          0.0000000000000000     
  -89.700000000000003          0.0000000000000000     
  -89.685000000000002          0.0000000000000000     
  -89.670000000000002          0.0000000000000000     
  -89.655000000000001          0.0000000000000000     
  -89.640000000000001          0.0000000000000000     
  -89.625000000000000          0.0000000000000000     
  -89.609999999999999          0.0000000000000000     
  -89.594999999999999          0.0000000000000000     
  -89.579999999999998          0.0000000000000000     
  -89.564999999999998          0.0000000000000000     
  -89.549999999999997          0.0000000000000000     
  -89.534999999999997          0.0000000000000000     
  -89.519999999999996          0.0000000000000000     
  -89.504999999999995          0.0000000000000000     
  -89.489999999999995          0.0000000000000000     
  -89.474999999999994          0.0000000000000000     
  -89.459999999999994          0.0000000000000000     
  -89.444999999999993          0.0000000000000000     
  -89.430000000000007          0.0000000000000000     
  -89.415000000000006          0.0000000000000000     
  -89.400000000000006          0.0000000000000000     
  -89.385000000000005          0.0000000000000000     
  -89.370000000000005          0.0000000000000000     
  -89.355000000000004          0.0000000000000000     
  -89.340000000000003          0.0000000000000000     
  -89.325000000000003          0.0000000000000000     
  -89.310000000000002          0.0000000000000000     
  -89.295000000000002          0.0000000000000000     
  -89.280000000000001          1.8421138905576465E-038
  -89.265000000000001          4.2650654340585439E-038
  -89.250000000000000          1.2415246555000443E-037
  -89.234999999999999          2.6288708954830264E-037
  -89.219999999999999          4.0754826437812679E-037
  -89.204999999999998          6.3020145178493871E-037
  -89.189999999999998          9.7168959185398783E-037
  -89.174999999999997          1.5951432870657554E-036
  -89.159999999999997          2.6832466568849323E-036
  -89.144999999999996          4.5227812390164285E-036
  -89.129999999999995          7.4417358936926787E-036
  -89.114999999999995          1.2001016002713399E-035
  -89.099999999999994          1.9106528513140211E-035
  -89.084999999999994          3.0010941878484733E-035
  -89.069999999999993          4.6443744492818265E-035
  -89.055000000000007          7.1156099667223458E-035
  -89.040000000000006          1.0807173637223558E-034
  -89.025000000000006          1.6286983917646470E-034
  -89.010000000000005          2.4359314846384282E-034
  -88.995000000000005          3.6149401503099416E-034
  -88.980000000000004          5.3219299096704589E-034
  -88.965000000000003          7.7715531484310820E-034
  -88.950000000000003          1.1255729424527881E-033
  -88.935000000000002          1.6167473794721268E-033
  -88.920000000000002          2.3030549807539192E-033
  -88.905000000000001          3.2536533850349020E-033
  -88.890000000000001          4.5589322304215551E-033
  -88.875000000000000          6.3358476946909267E-033
  -88.859999999999999          8.7341794313148693E-033
  -88.844999999999999          1.1943744798696228E-032
  -88.829999999999998          1.6202491036748295E-032
  -88.814999999999998          2.1805326168205367E-032
  -88.799999999999997          2.9113386302211037E-032
  -88.784999999999997          3.8563273550547718E-032
  -88.769999999999996          5.0675526199118290E-032
  -88.754999999999995          6.6061272005971751E-032
  -88.739999999999995          8.5425660644807622E-032
  -88.724999999999994          1.0956612397333673E-031
  -88.709999999999994          1.3936296620100286E-031
  -88.694999999999993          1.7575910424384636E-031
  -88.680000000000007          2.1972495570824507E-031
  -88.665000000000006          2.7220360795692019E-031
  -88.650000000000006          3.3403035552062253E-031
  -88.635000000000005          4.0581972333607498E-031
  -88.620000000000005          4.8781200595847262E-031
  -88.605000000000004          5.7967021266732172E-031
  -88.590000000000003          6.8021710938016077E-031
  -88.575000000000003          7.8710189547444133E-031
  -88.560000000000002          8.9638450196530323E-031
  -88.545000000000002          1.0020264613923464E-030
  -88.530000000000001          1.0952766414916652E-030
  -88.515000000000001          1.1639426267774348E-030
  -88.500000000000000          1.1915389083155311E-030
  -88.484999999999999          1.1563087783840987E-030
  -88.469999999999999          1.0301186134673936E-030
  -88.454999999999998          7.7723404357725453E-031
  -88.439999999999998          3.5299105588949901E-031
  -88.424999999999997         -2.9760982596999947E-031
  -88.409999999999997         -1.2413475191858614E-030
  -88.394999999999996         -2.5582067265984892E-030
  -88.379999999999995         -4.3427117231241708E-030
  -88.364999999999995         -6.7050739438700138E-030
  -88.349999999999994         -9.7720346255043890E-030
  -88.334999999999994         -1.3687250086285356E-029
  -88.319999999999993         -1.8611057003348689E-029
  -88.305000000000007         -2.4719411646605699E-029
  -88.290000000000006         -3.2201762328007789E-029
  -88.275000000000006         -4.1257617334200249E-029
  -88.260000000000005         -5.2091493874316542E-029
  -88.245000000000005         -6.4905981722912979E-029
  -88.230000000000004         -7.9892569473975798E-029
  -88.215000000000003         -9.7219932479446863E-029
  -88.200000000000003         -1.1701939508740908E-028
  -88.185000000000002         -1.3936717597541157E-028
  -88.170000000000002         -1.6426334736582725E-028
  -88.155000000000001         -1.9160717108550252E-028
  -88.140000000000001         -2.2116876332145045E-028
  -88.125000000000000         -2.5255720844320905E-028
  -88.109999999999999         -2.8518513392892666E-028
  -88.094999999999999         -3.1823028806297147E-028
  -88.079999999999998         -3.5059452966517816E-028
  -88.064999999999998         -3.8086109652020689E-028
  -88.049999999999997         -4.0725141639854034E-028
  -88.034999999999997         -4.2758254400471281E-028
  -88.019999999999996         -4.3922734237570996E-028
  -88.004999999999995         -4.3907904576999214E-028
  -87.989999999999995         -4.2352311701618200E-028
  -87.974999999999994         -3.8841904747509002E-028
  -87.959999999999994         -3.2909460332400569E-028
  -87.944999999999993         -2.4035726076574228E-028
  -87.930000000000007         -1.1652506905599564E-028
  -87.915000000000006          4.8518267900246294E-029
  -87.900000000000006          2.6124069693171639E-028
  -87.885000000000005          5.2834743943629603E-028
  -87.870000000000005          8.5663139477258483E-028
  -87.855000000000004          1.2527853620903229E-027
  -87.840000000000003          1.7231722768880253E-027
  -87.825000000000003          2.2735537511873210E-027
  -87.810000000000002          2.9087732099088522E-027
  -87.795000000000002          3.6323967049376463E-027
  -87.780000000000001          4.4463101068752473E-027
  -87.765000000000001          5.3502799930123954E-027
  -87.750000000000000          6.3414810241206746E-027
  -87.734999999999999          7.4139967434109272E-027
  -87.719999999999999          8.5583065087960695E-027
  -87.704999999999998          9.7607662621780845E-027
  -87.689999999999998          1.1003105091360559E-026
  -87.674999999999997          1.2261945288306544E-026
  -87.659999999999997          1.3508369400087053E-026
  -87.644999999999996          1.4707564317027343E-026
  -87.629999999999995          1.5818537775819098E-026
  -87.614999999999995          1.6793975070332567E-026
  -87.599999999999994          1.7580210547853390E-026
  -87.584999999999994          1.8117380142734190E-026
  -87.569999999999993          1.8339758799320828E-026
  -87.555000000000007          1.8176301273080795E-026
  -87.540000000000006          1.7551418665556779E-026
  -87.525000000000006          1.6385999937609175E-026
  -87.510000000000005          1.4598690726899155E-026
  -87.495000000000005          1.2107424847380445E-026
  -87.480000000000004          8.8312308115871625E-027
  -87.465000000000003          4.6922752423048077E-027
  -87.450000000000003         -3.8185417822190586E-028
  -87.435000000000002         -6.4556620919896051E-027
  -87.420000000000002         -1.3583089318953456E-026
  -87.405000000000001         -2.1804734799378881E-026
  -87.390000000000001         -3.1145008154567034E-026
  -87.375000000000000         -4.1609269632739133E-026
  -87.359999999999999         -5.3181051762498689E-026
  -87.344999999999999         -6.5819416976947807E-026
  -87.329999999999998         -7.9456541727164947E-026
  -87.314999999999998         -9.3995593337034229E-026
  -87.299999999999997         -1.0930902902191855E-025
  -87.284999999999997         -1.2523735096754354E-025
  -87.269999999999996         -1.4158837909885056E-025
  -87.254999999999995         -1.5813718945023845E-025
  -87.239999999999995         -1.7462663801850847E-025
  -87.224999999999994         -1.9076861800993191E-025
  -87.209999999999994         -2.0624598268870665E-025
  -87.194999999999993         -2.2071517080465730E-025
  -87.180000000000007         -2.3380947297042087E-025
  -87.165000000000006         -2.4514288968431142E-025
  -87.150000000000006         -2.5431453169505694E-025
  -87.135000000000005         -2.6091335316723070E-025
  -87.120000000000005         -2.6452318066952205E-025
  -87.105000000000004         -2.6472779146681375E-025
  -87.090000000000003         -2.6111609041987250E-025
  -87.075000000000003         -2.5328684315078027E-025
  -87.060000000000002         -2.4085316268933271E-025
  -87.045000000000002         -2.2344640447375875E-025
  -87.030000000000001         -2.0071918620887331E-025
  -87.015000000000001         -1.7234785305640620E-025
  -87.000000000000000         -1.3803373488206975E-025
  -86.984999999999999         -9.7503707086358644E-026
  -86.969999999999999         -5.0509703729459995E-026
  -86.954999999999998          3.1724865601479187E-027
  -86.939999999999998          6.3745039433935114E-026
  -86.924999999999997          1.3139024416113784E-025
  -86.909999999999997          2.0627261907020951E-025
  -86.894999999999996          2.8854051931513823E-025
  -86.879999999999995          3.7832672004703403E-025
  -86.864999999999995          4.7574751661965878E-025
  -86.849999999999994          5.8089927332296589E-025
  -86.834999999999994          6.9385246994845620E-025
  -86.819999999999993          8.1464156985692654E-025
  -86.805000000000007          9.4325114095691854E-025
  -86.790000000000006          1.0795966765239604E-024
  -86.775000000000006          1.2234997953858590E-024
  -86.760000000000005          1.3746582652083015E-024
  -86.745000000000005          1.5326097148932154E-024
  -86.730000000000004          1.6966891346974992E-024
  -86.715000000000003          1.8659812487558703E-024
  -86.700000000000003          2.0392677600078280E-024
  -86.685000000000002          2.2149705522124776E-024
  -86.670000000000002          2.3910924267730259E-024
  -86.655000000000001          2.5651573465232105E-024
  -86.640000000000001          2.7341522572355396E-024
  -86.625000000000000          2.8944724590036058E-024
  -86.609999999999999          3.0418738801573201E-024
  -86.594999999999999          3.1714371840917243E-024
  -86.579999999999998          3.2775446950855133E-024
  -86.564999999999998          3.3538744818442458E-024
  -86.549999999999997          3.3934173180098068E-024
  -86.534999999999997          3.3885180973579317E-024
  -86.519999999999996          3.3309466340644497E-024
  -86.504999999999995          3.2119994257620572E-024
  -86.489999999999995          3.0226379014139584E-024
  -86.474999999999994          2.7536611818521078E-024
  -86.459999999999994          2.3959182833607155E-024
  -86.444999999999993          1.9405575949375228E-024
  -86.430000000000007          1.3793122487262660E-024
  -86.415000000000006          7.0481990450613077E-025
  -86.400000000000006         -8.9027883534848814E-026
  -86.385000000000005         -1.0067125355916201E-024
  -86.370000000000005         -2.0506985517397067E-024
  -86.355000000000004         -3.2210360246465902E-024
  -86.340000000000003         -4.5149665049419390E-024
  -86.325000000000003         -5.9265447424135548E-024
  -86.310000000000002         -7.4462868540436445E-024
  -86.295000000000002         -9.0608642459775938E-024
  -86.280000000000001         -1.0752854136262691E-023
  -86.265000000000001         -1.2500561272283549E-023
  -86.250000000000000         -1.4277932733784338E-023
  -86.234999999999999         -1.6054576865530513E-023
  -86.219999999999999         -1.7795889495053649E-023
  -86.204999999999998         -1.9463322145359216E-023
  -86.189999999999998         -2.1014776465379191E-023
  -86.174999999999997         -2.2405151699440276E-023
  -86.159999999999997         -2.3587034151695069E-023
  -86.144999999999996         -2.4511536534125213E-023
  -86.129999999999995         -2.5129276154063872E-023
  -86.114999999999995         -2.5391488785793905E-023
  -86.099999999999994         -2.5251248249507335E-023
  -86.084999999999994         -2.4664796430791551E-023
  -86.069999999999993         -2.3592933253544312E-023
  -86.055000000000007         -2.2002455562264864E-023
  -86.040000000000006         -1.9867594426623259E-023
  -86.025000000000006         -1.7171430357924317E-023
  -86.010000000000005         -1.3907234372646501E-023
  -85.995000000000005         -1.0079690726845014E-023
  -85.980000000000004         -5.7059674004001816E-024
  -85.965000000000003         -8.1658473148171220E-025
  -85.950000000000003          4.5439622708046951E-024
  -85.935000000000002          1.0316859391416996E-023
  -85.920000000000002          1.6428945007599438E-023
  -85.905000000000001          2.2793028295650206E-023
  -85.890000000000001          2.9308558678007114E-023
  -85.875000000000000          3.5862683291291055E-023
  -85.859999999999999          4.2331677191127166E-023
  -85.844999999999999          4.8582737221843299E-023
  -85.829999999999998          5.4476134029019467E-023
  -85.814999999999998          5.9867682771842994E-023
  -85.799999999999997          6.4611456804622477E-023
  -85.784999999999997          6.8562797970002108E-023
  -85.769999999999996          7.1581415244597381E-023
  -85.754999999999995          7.3534622224150122E-023
  -85.739999999999995          7.4300587230458000E-023
  -85.724999999999994          7.3771501376769888E-023
  -85.709999999999994          7.1856651969872613E-023
  -85.694999999999993          6.8485224544026294E-023
  -85.680000000000007          6.3608846148522780E-023
  -85.665000000000006          5.7203743671122330E-023
  -85.650000000000006          4.9272501420150447E-023
  -85.635000000000005          3.9845332768277097E-023
  -85.620000000000005          2.8980881635196410E-023
  -85.605000000000004          1.6766482811725404E-023
  -85.590000000000003          3.3179473896377652E-024
  -85.575000000000003         -1.1221149579733567E-023
  -85.560000000000002         -2.6680610567226253E-023
  -85.545000000000002         -4.2865142800561065E-023
  -85.530000000000001         -5.9556177377589321E-023
  -85.515000000000001         -7.6513910049454697E-023
  -85.500000000000000         -9.3479468221499865E-023
  -85.484999999999999         -1.1017705981037232E-022
  -85.469999999999999         -1.2631609370213760E-022
  -85.454999999999998         -1.4159308564022633E-022
  -85.439999999999998         -1.5569332429966602E-022
  -85.424999999999997         -1.6829222812783804E-022
  -85.409999999999997         -1.7905641819530876E-022
  -85.394999999999996         -1.8764439977165161E-022
  -85.379999999999995         -1.9370695360045613E-022
  -85.364999999999995         -1.9688742620014103E-022
  -85.349999999999994         -1.9682186870347355E-022
  -85.334999999999994         -1.9313933978015703E-022
  -85.319999999999993         -1.8546254934732961E-022
  -85.305000000000007         -1.7340910812523809E-022
  -85.290000000000006         -1.5659372382599804E-022
  -85.275000000000006         -1.3463158378915540E-022
  -85.260000000000005         -1.0714344155680336E-022
  -85.245000000000005         -7.3762539916886577E-023
  -85.230000000000004         -3.4143821643130509E-023
  -85.215000000000003          1.2024247057711102E-023
  -85.200000000000003          6.5005104707215004E-023
  -85.185000000000002          1.2499657553230528E-022
  -85.170000000000002          1.9211029912828881E-022
  -85.155000000000001          2.6634832022263192E-022
  -85.140000000000001          3.4757678489693671E-022
  -85.125000000000000          4.3549741537660826E-022
  -85.109999999999999          5.2961728088096654E-022
  -85.094999999999999          6.2921711696929276E-022
  -85.079999999999998          7.3331984683526742E-022
  -85.064999999999998          8.4066011234336705E-022
  -85.049999999999997          9.4965574881853141E-022
  -85.034999999999997          1.0583831473423717E-021
  -85.019999999999996          1.1645583220914450E-021
  -85.004999999999995          1.2655244400240651E-021
  -84.989999999999995          1.3582481353221525E-021
  -84.974999999999994          1.4393272844043171E-021
  -84.959999999999994          1.5050098881004849E-021
  -84.944999999999993          1.5512277970333183E-021
  -84.930000000000007          1.5736450782580373E-021
  -84.915000000000006          1.5677230426445580E-021
  -84.900000000000006          1.5288026398213217E-021
  -84.885000000000005          1.4522043216550083E-021
  -84.870000000000005          1.3333454752403315E-021
  -84.855000000000004          1.1678742137095638E-021
  -84.840000000000003          9.5181932291340125E-022
  -84.825000000000003          6.8175313279889892E-022
  -84.810000000000002          3.5496547070540293E-022
  -84.795000000000002         -3.0355105731084001E-023
  -84.780000000000001         -4.7493652264401999E-022
  -84.765000000000001         -9.7824002905590615E-022
  -84.750000000000000         -1.5382836119423747E-021
  -84.734999999999999         -2.1514777901016017E-021
  -84.719999999999999         -2.8124809275979589E-021
  -84.704999999999998         -3.5140793269044197E-021
  -84.689999999999998         -4.2470998862231335E-021
  -84.674999999999997         -5.0003613289488212E-021
  -84.659999999999997         -5.7606687510621981E-021
  -84.644999999999996         -6.5128635023827331E-021
  -84.629999999999995         -7.2399233529709501E-021
  -84.614999999999995         -7.9231284947064350E-021
  -84.599999999999994         -8.5422828767251795E-021
  -84.584999999999994         -9.0760090500715165E-021
  -84.569999999999993         -9.5021031929707923E-021
  -84.555000000000007         -9.7979535478970459E-021
  -84.540000000000006         -9.9410154041903723E-021
  -84.525000000000006         -9.9093482807789429E-021
  -84.510000000000005         -9.6821894596115363E-021
  -84.495000000000005         -9.2405695243555522E-021
  -84.480000000000004         -8.5679513251084657E-021
  -84.465000000000003         -7.6508810600127859E-021
  -84.450000000000003         -6.4796328945224790E-021
  -84.435000000000002         -5.0488362131077027E-021
  -84.420000000000002         -3.3580632890747586E-021
  -84.405000000000001         -1.4123607117589482E-021
  -84.390000000000001          7.7729320036814469E-022
  -84.375000000000000          3.1936249935677235E-021
  -84.359999999999999          5.8128118258085828E-021
  -84.344999999999999          8.6043545422029014E-021
  -84.329999999999998          1.1531093225032407E-020
  -84.314999999999998          1.4549375113836103E-020
  -84.299999999999997          1.7609377924785443E-020
  -84.284999999999997          2.0655615933354018E-020
  -84.269999999999996          2.3627604788423155E-020
  -84.254999999999995          2.6460695155243007E-020
  -84.239999999999995          2.9087072763868431E-020
  -84.224999999999994          3.1436905476024051E-020
  -84.209999999999994          3.3439622830114303E-020
  -84.194999999999993          3.5025328064378458E-020
  -84.180000000000007          3.6126276379118127E-020
  -84.165000000000006          3.6678435593868612E-020
  -84.150000000000006          3.6623085578661451E-020
  -84.135000000000005          3.5908385373544296E-020
  -84.120000000000005          3.4490943539275059E-020
  -84.105000000000004          3.2337294803962289E-020
  -84.090000000000003          2.9425270080954711E-020
  -84.075000000000003          2.5745230777411521E-020
  -84.060000000000002          2.1301102770068079E-020
  -84.045000000000002          1.6111218126132663E-020
  -84.030000000000001          1.0208913678319582E-020
  -84.015000000000001          3.6428638357987535E-021
  -84.000000000000000         -3.5228661014288783E-021
  -83.984999999999999         -1.1209059049427155E-020
  -83.969999999999999         -1.9321884130840295E-020
  -83.954999999999998         -2.7753728702266842E-020
  -83.939999999999998         -3.6384314724969191E-020
  -83.924999999999997         -4.5082112403615741E-020
  -83.909999999999997         -5.3705971121492561E-020
  -83.894999999999996         -6.2106995137165839E-020
  -83.879999999999995         -7.0130608304838994E-020
  -83.864999999999995         -7.7618777122248917E-020
  -83.849999999999994         -8.4412327482615971E-020
  -83.834999999999994         -9.0353364824170561E-020
  -83.819999999999993         -9.5287697510853973E-020
  -83.805000000000007         -9.9067260213019217E-020
  -83.790000000000006         -1.0155247912699504E-019
  -83.775000000000006         -1.0261453379707338E-019
  -83.760000000000005         -1.0213754138931438E-019
  -83.745000000000005         -1.0002053417019830E-019
  -83.730000000000004         -9.6179333587700781E-020
  -83.715000000000003         -9.0548185245472405E-020
  -83.700000000000003         -8.3081264630047438E-020
  -83.685000000000002         -7.3753976042899498E-020
  -83.670000000000002         -6.2564064124389671E-020
  -83.655000000000001         -4.9532612286615256E-020
  -83.640000000000001         -3.4704886049893657E-020
  -83.625000000000000         -1.8151045516688430E-020
  -83.609999999999999          3.3195418352993979E-023
  -83.594999999999999          1.9726007096512198E-020
  -83.579999999999998          4.0778912061961753E-020
  -83.564999999999998          6.3016273425514754E-020
  -83.549999999999997          8.6234851941314642E-020
  -83.534999999999997          1.1020334723057628E-019
  -83.519999999999996          1.3466203104330654E-019
  -83.504999999999995          1.5932243060322611E-019
  -83.489999999999995          1.8386717997375310E-019
  -83.474999999999994          2.0795007821913994E-019
  -83.459999999999994          2.3119636082311182E-019
  -83.444999999999993          2.5320344932129684E-019
  -83.430000000000007          2.7354211452396240E-019
  -83.415000000000006          2.9175833767239346E-019
  -83.400000000000006          3.0737584367951847E-019
  -83.385000000000005          3.1989951324993616E-019
  -83.370000000000005          3.2881988067449630E-019
  -83.355000000000004          3.3361876899822269E-019
  -83.340000000000003          3.3377611426036676E-019
  -83.325000000000003          3.2877810805356237E-019
  -83.310000000000002          3.1812686519723502E-019
  -83.295000000000002          3.0135138388071820E-019
  -83.280000000000001          2.7801990167365336E-019
  -83.265000000000001          2.4775372495185607E-019
  -83.250000000000000          2.1024201475076539E-019
  -83.234999999999999          1.6525776169102379E-019
  -83.219999999999999          1.1267436836481945E-019
  -83.204999999999998          5.2482732554240023E-020
  -83.189999999999998         -1.5191682475070663E-020
  -83.174999999999997         -9.0072200964084958E-020
  -83.159999999999997         -1.7171526346519264E-019
  -83.144999999999996         -2.5949614828311157E-019
  -83.129999999999995         -3.5259700643657408E-019
  -83.114999999999995         -4.4999731676953995E-019
  -83.099999999999994         -5.5046801813872609E-019
  -83.084999999999994         -6.5256929929040739E-019
  -83.069999999999993         -7.5465341644437821E-019
  -83.055000000000007         -8.5487239641340681E-019
  -83.040000000000006         -9.5119121979424788E-019
  -83.025000000000006         -1.0414075699047673E-018
  -83.010000000000005         -1.1231775787805077E-018
  -82.995000000000005         -1.1940478287246369E-018
  -82.980000000000004         -1.2514946950858321E-018
  -82.965000000000003         -1.2929689106137815E-018
  -82.950000000000003         -1.3159469540547389E-018
  -82.935000000000002         -1.3179876086259072E-018
  -82.920000000000002         -1.2967926563928844E-018
  -82.905000000000001         -1.2502721221404787E-018
  -82.890000000000001         -1.1766115851950550E-018
  -82.875000000000000         -1.0743403184274941E-018
  -82.859999999999999         -9.4239994424403430E-019
  -82.844999999999999         -7.8021035054133454E-019
  -82.829999999999998         -5.8773183264999229E-019
  -82.814999999999998         -3.6552224634499213E-019
  -82.799999999999997         -1.1478582442654348E-019
  -82.784999999999997          1.6258691181536370E-019
  -82.769999999999996          4.6399088628846437E-019
  -82.754999999999995          7.8609098431112716E-019
  -82.739999999999995          1.1248214968503803E-018
  -82.724999999999994          1.4754010097729375E-018
  -82.709999999999994          1.8323651162534853E-018
  -82.694999999999993          2.1896157374187062E-018
  -82.680000000000007          2.5404900368320620E-018
  -82.665000000000006          2.8778471710605357E-018
  -82.650000000000006          3.1941715838536235E-018
  -82.635000000000005          3.4816950152836869E-018
  -82.620000000000005          3.7325321593664109E-018
  -82.605000000000004          3.9388326584983611E-018
  -82.590000000000003          4.0929413697006655E-018
  -82.575000000000003          4.1875691774155068E-018
  -82.560000000000002          4.2159691829765961E-018
  -82.545000000000002          4.1721145484408723E-018
  -82.530000000000001          4.0508738588783624E-018
  -82.515000000000001          3.8481835895298999E-018
  -82.500000000000000          3.5612069244847341E-018
  -82.484999999999999          3.1884812016247181E-018
  -82.469999999999999          2.7300471595950201E-018
  -82.454999999999998          2.1875554373079897E-018
  -82.439999999999998          1.5643478444383412E-018
  -82.424999999999997          8.6550957719932075E-019
  -82.409999999999997          9.7890233900144543E-020
  -82.394999999999996         -7.2990970428713807E-019
  -82.379999999999995         -1.6075875735862084E-018
  -82.364999999999995         -2.5232240891110895E-018
  -82.349999999999994         -3.4634052247595269E-018
  -82.334999999999994         -4.4133803856557452E-018
  -82.319999999999993         -5.3572550895343850E-018
  -82.305000000000007         -6.2782148224937745E-018
  -82.290000000000006         -7.1587800174197495E-018
  -82.275000000000006         -7.9810868818036147E-018
  -82.260000000000005         -8.7271855963529695E-018
  -82.245000000000005         -9.3793562979857029E-018
  -82.230000000000004         -9.9204374705331773E-018
  -82.215000000000003         -1.0334155989804637E-017
  -82.200000000000003         -1.0605455514290391E-017
  -82.185000000000002         -1.0720816604058874E-017
  -82.170000000000002         -1.0668564431944512E-017
  -82.155000000000001         -1.0439151679317218E-017
  -82.140000000000001         -1.0025420752336570E-017
  -82.125000000000000         -9.4228279478978148E-018
  -82.109999999999999         -8.6296353595339784E-018
  -82.094999999999999         -7.6470614242873515E-018
  -82.079999999999998         -6.4793859746472834E-018
  -82.064999999999998         -5.1340131042767362E-018
  -82.049999999999997         -3.6214819213602481E-018
  -82.034999999999997         -1.9554322206085122E-018
  -82.019999999999996         -1.5252266992591637E-019
  -82.004999999999995          1.7676998582768461E-018
  -81.989999999999995          3.7829728059392820E-018
  -81.974999999999994          5.8685341853824926E-018
  -81.960000000000008          7.9973740680647839E-018
  -81.944999999999993          1.0140524588934549E-017
  -81.930000000000007          1.2267372207111506E-017
  -81.915000000000006          1.4346005121743973E-017
  -81.900000000000006          1.6343575163526855E-017
  -81.885000000000005          1.8226678297783424E-017
  -81.870000000000005          1.9961742572172603E-017
  -81.855000000000004          2.1515434262369730E-017
  -81.840000000000003          2.2855058227483033E-017