  -90.000000000000000          0.0000000000000000     
  -89.984999999999999          0.0000000000000000     
  -89.969999999999999          0.0000000000000000     
  -89.954999999999998          0.0000000000000000     
  -89.939999999999998          0.0000000000000000     
  -89.924999999999997          0.0000000000000000     
  -89.909999999999997          0.0000000000000000     
  -89.894999999999996          0.0000000000000000     
  -89.879999999999995          0.0000000000000000     
  -89.864999999999995          0.0000000000000000     
  -89.849999999999994          0.0000000000000000     
  -89.834999999999994          0.0000000000000000     
  -89.819999999999993          0.0000000000000000     
  -89.805000000000007          0.0000000000000000     
  -89.790000000000006          0.0000000000000000     
  -89.775000000000006          0.0000000000000000     
  -89.760000000000005          0.0000000000000000     
  -89.745000000000005          0.0000000000000000     
  -89.730000000000004          0.0000000000000000     
  -89.715000000000003          0.0000000000000000     
  -89.700000000000003          0.0000000000000000     
  -89.685000000000002          0.0000000000000000     
  -89.670000000000002          0.0000000000000000     
  -89.655000000000001          0.0000000000000000     
  -89.640000000000001          0.0000000000000000     
  -89.625000000000000          0.0000000000000000     
  -89.609999999999999          0.0000000000000000     
  -89.594999999999999          0.0000000000000000     
  -89.579999999999998          0.0000000000000000     
  -89.564999999999998          0.0000000000000000     
  -89.549999999999997          0.0000000000000000     
  -89.534999999999997          0.0000000000000000     
  -89.519999999999996          0.0000000000000000     
  -89.504999999999995          0.0000000000000000     
  -89.489999999999995          0.0000000000000000     
  -89.474999999999994          0.0000000000000000     
  -89.459999999999994          0.0000000000000000     
  -89.444999999999993          0.0000000000000000     
  -89.430000000000007          0.0000000000000000     
  -89.415000000000006          0.0000000000000000     
  -89.400000000000006          0.0000000000000000     
  -89.385000000000005          0.0000000000000000     
  -89.370000000000005          0.0000000000000000     
  -89.355000000000004          0.0000000000000000     
  -89.340000000000003          0.0000000000000000     
  -89.325000000000003          0.0000000000000000     
  -89.310000000000002          0.0000000000000000     
  -89.295000000000002          0.0000000000000000     
  -89.280000000000001          0.0000000000000000     
  -89.265000000000001          0.0000000000000000     
  -89.250000000000000          0.0000000000000000     
  -89.234999999999999          0.0000000000000000     
  -89.219999999999999          0.0000000000000000     
  -89.204999999999998          0.0000000000000000     
  -89.189999999999998          0.0000000000000000     
  -89.174999999999997          0.0000000000000000     
  -89.159999999999997          0.0000000000000000     
  -89.144999999999996          0.0000000000000000     
  -89.129999999999995          0.0000000000000000     
  -89.114999999999995          0.0000000000000000     
  -89.099999999999994          0.0000000000000000     
  -89.084999999999994          0.0000000000000000     
  -89.069999999999993          0.0000000000000000     
  -89.055000000000007          0.0000000000000000     
  -89.040000000000006          0.0000000000000000     
  -89.025000000000006          0.0000000000000000     
  -89.010000000000005          0.0000000000000000     
  -88.995000000000005          0.0000000000000000     
  -88.980000000000004          0.0000000000000000     
  -88.965000000000003          0.0000000000000000     
  -88.950000000000003          0.0000000000000000     
  -88.935000000000002          0.0000000000000000     
  -88.920000000000002          0.0000000000000000     
  -88.905000000000001          0.0000000000000000     
  -88.890000000000001          0.0000000000000000     
  -88.875000000000000          0.0000000000000000     
  -88.859999999999999          0.0000000000000000     
  -88.844999999999999          0.0000000000000000     
  -88.829999999999998          0.0000000000000000     
  -88.814999999999998          0.0000000000000000     
  -88.799999999999997          0.0000000000000000     
  -88.784999999999997          0.0000000000000000     
  -88.769999999999996          0.0000000000000000     
  -88.754999999999995          0.0000000000000000     
  -88.739999999999995          0.0000000000000000     
  -88.724999999999994          0.0000000000000000     
  -88.709999999999994          0.0000000000000000     
  -88.694999999999993          0.0000000000000000     
  -88.680000000000007          0.0000000000000000     
  -88.665000000000006          0.0000000000000000     
  -88.650000000000006          0.0000000000000000     
  -88.635000000000005          0.0000000000000000     
  -88.620000000000005          0.0000000000000000     
  -88.605000000000004          0.0000000000000000     
  -88.590000000000003          0.0000000000000000     
  -88.575000000000003          0.0000000000000000     
  -88.560000000000002          0.0000000000000000     
  -88.545000000000002          0.0000000000000000     
  -88.530000000000001          0.0000000000000000     
  -88.515000000000001          0.0000000000000000     
  -88.500000000000000          0.0000000000000000     
  -88.484999999999999          0.0000000000000000     
  -88.469999999999999          0.0000000000000000     
  -88.454999999999998          0.0000000000000000     
  -88.439999999999998          0.0000000000000000     
  -88.424999999999997          0.0000000000000000     
  -88.409999999999997          0.0000000000000000     
  -88.394999999999996          0.0000000000000000     
  -88.379999999999995          0.0000000000000000     
  -88.364999999999995          0.0000000000000000     
  -88.349999999999994          0.0000000000000000     
  -88.334999999999994          0.0000000000000000     
  -88.319999999999993          0.0000000000000000     
  -88.305000000000007          0.0000000000000000     
  -88.290000000000006          0.0000000000000000     
  -88.275000000000006          0.0000000000000000     
  -88.260000000000005          1.2270432167801724E-038
  -88.245000000000005          2.9435078588461305E-038
  -88.230000000000004          5.2600282616443223E-038
  -88.215000000000003          8.3014019644598194E-038
  -88.200000000000003          1.2203939714890433E-037
  -88.185000000000002          1.7112554831806463E-037
  -88.170000000000002          2.3084055954951639E-037
  -88.155000000000001          3.0139288800281256E-037
  -88.140000000000001          3.8340194123034785E-037
  -88.125000000000000          4.7714526601116030E-037
  -88.109999999999999          5.8243049209206739E-037
  -88.094999999999999          7.0071622543939098E-037
  -88.079999999999998          8.3312408776475206E-037
  -88.064999999999998          9.7067913234694478E-037
  -88.049999999999997          1.0992656873912552E-036
  -88.034999999999997          1.1947527207187472E-036
  -88.019999999999996          1.2588949718976113E-036
  -88.004999999999995          1.2921275833373775E-036
  -87.989999999999995          1.2671780134890722E-036
  -87.974999999999994          1.2208386651489060E-036
  -87.959999999999994          1.0889517719614177E-036
  -87.944999999999993          8.4249677904207189E-037
  -87.930000000000007          4.4634710236749632E-037
  -87.915000000000006         -1.7330841259307583E-037
  -87.900000000000006         -1.0740812374995536E-036
  -87.885000000000005         -2.3128068385534661E-036
  -87.870000000000005         -3.9536852789031218E-036
  -87.855000000000004         -6.0888612820412312E-036
  -87.840000000000003         -8.8221546970082000E-036
  -87.825000000000003         -1.2270859541412568E-035
  -87.810000000000002         -1.6229141617377285E-035
  -87.795000000000002         -2.0700771202498526E-035
  -87.780000000000001         -2.5787332704823304E-035
  -87.765000000000001         -3.1489533544657960E-035
  -87.750000000000000         -3.8023709452358173E-035
  -87.734999999999999         -4.5441853668045640E-035
  -87.719999999999999         -5.3749806355304159E-035
  -87.704999999999998         -6.2948996704042688E-035
  -87.689999999999998         -7.3003135343982546E-035
  -87.674999999999997         -8.3790236037633372E-035
  -87.659999999999997         -9.5316882242125991E-035
  -87.644999999999996         -1.0737601361221668E-034
  -87.629999999999995         -1.1966851619720036E-034
  -87.614999999999995         -1.3177916154091717E-034
  -87.599999999999994         -1.4311165028737627E-034
  -87.584999999999994         -1.5288317666732693E-034
  -87.569999999999993         -1.6013221155655796E-034
  -87.555000000000007         -1.6369246711273693E-034
  -87.540000000000006         -1.6214623286392483E-034
  -87.525000000000006         -1.5383344446382174E-034
  -87.510000000000005         -1.3682993015861437E-034
  -87.495000000000005         -1.0891260513393219E-034
  -87.480000000000004         -6.7593238278841011E-035
  -87.465000000000003         -1.0109155994251446E-035
  -87.450000000000003          6.6578662676161564E-035
  -87.435000000000002          1.6572906847272164E-034
  -87.420000000000002          2.9075972153734287E-034
  -87.405000000000001          4.4524970944263511E-034
  -87.390000000000001          6.3287284233577669E-034
  -87.375000000000000          8.5728444847034412E-034
  -87.359999999999999          1.1219874091762917E-033
  -87.344999999999999          1.4301913750443411E-033
  -87.329999999999998          1.7846414008901510E-033
  -87.314999999999998          2.1874089281650610E-033
  -87.299999999999997          2.6396756041981359E-033
  -87.284999999999997          3.1414149803664822E-033
  -87.269999999999996          3.6911323421346325E-033
  -87.254999999999995          4.2855192239179991E-033
  -87.239999999999995          4.9190941486219036E-033
  -87.224999999999994          5.5838229797004604E-033
  -87.209999999999994          6.2687232938391277E-033
  -87.194999999999993          6.9594687536372588E-033
  -87.180000000000007          7.6379729091395143E-033
  -87.165000000000006          8.2820380188985539E-033
  -87.150000000000006          8.8649972588820046E-033
  -87.135000000000005          9.3554237876206327E-033
  -87.120000000000005          9.7169044635458099E-033
  -87.105000000000004          9.9079105406109234E-033
  -87.090000000000003          9.8817778318242054E-033
  -87.075000000000003          9.5868191158960307E-033
  -87.060000000000002          8.9666069905670831E-033
  -87.045000000000002          7.9604301113532687E-033
  -87.030000000000001          6.5039558764859913E-033
  -87.015000000000001          4.5302993920874320E-033
  -87.000000000000000          1.9706211375795453E-033
  -86.984999999999999         -1.2439381522473883E-033
  -86.969999999999999         -5.1807782928981457E-033
  -86.954999999999998         -9.9039021048746194E-033
  -86.939999999999998         -1.5471717055568788E-032
  -86.924999999999997         -2.1934567363974462E-032
  -86.909999999999997         -2.9332040006407491E-032
  -86.894999999999996         -3.7690045817095874E-032
  -86.879999999999995         -4.7017728672721070E-032
  -86.864999999999995         -5.7304262270312005E-032
  -86.849999999999994         -6.8515539641279573E-032
  -86.834999999999994         -8.0590922909536603E-032
  -86.819999999999993         -9.3440004804561355E-032
  -86.805000000000007         -1.0693956413102888E-031
  -86.790000000000006         -1.2093076809225608E-031
  -86.775000000000006         -1.3521673901689547E-031
  -86.760000000000005         -1.4956049724382128E-031
  -86.745000000000005         -1.6368357991626723E-031
  -86.730000000000004         -1.7726514760611988E-031
  -86.715000000000003         -1.8994196080403162E-031
  -86.700000000000003         -2.0130909697097472E-031
  -86.685000000000002         -2.1092156096550187E-031
  -86.670000000000002         -2.1829682411154405E-031
  -86.655000000000001         -2.2291830366168889E-031
  -86.640000000000001         -2.2423988845043137E-031
  -86.625000000000000         -2.2169139318796164E-031
  -86.609999999999999         -2.1468476507033733E-031
  -86.594999999999999         -2.0262139535434570E-031
  -86.579999999999998         -1.8489990113010608E-031
  -86.564999999999998         -1.6092474169466136E-031
  -86.549999999999997         -1.3011514055410077E-031
  -86.534999999999997         -9.1914430603648928E-032
  -86.519999999999996         -4.5799446327528851E-032
  -86.504999999999995          8.7100781237031661E-033
  -86.489999999999995          7.2042345954692911E-032
  -86.474999999999994          1.4456466976271358E-031
  -86.459999999999994          2.2657517254754896E-031
  -86.444999999999993          3.1829504708119329E-031
  -86.430000000000007          4.1986133249506544E-031
  -86.415000000000006          5.3132048432590988E-031
  -86.400000000000006          6.5262205035618934E-031
  -86.385000000000005          7.8361279314233062E-031
  -86.370000000000005          9.2403100062206665E-031
  -86.355000000000004          1.0734997152669757E-030
  -86.340000000000003          1.2315196340966026E-030
  -86.325000000000003          1.3974605040598103E-030
  -86.310000000000002          1.5705496962296905E-030
  -86.295000000000002          1.7498585700690936E-030
  -86.280000000000001          1.9342847939955923E-030
  -86.265000000000001          2.1225305282063308E-030
  -86.250000000000000          2.3130753412881817E-030
  -86.234999999999999          2.5041430142572783E-030
  -86.219999999999999          2.6936626081861159E-030
  -86.204999999999998          2.8792220086668073E-030
  -86.189999999999998          3.0580154517432618E-030
  -86.174999999999997          3.2267842789959038E-030
  -86.159999999999997          3.3817520502535076E-030
  -86.144999999999996          3.5185536377739557E-030
  -86.129999999999995          3.6321628157922281E-030
  -86.114999999999995          3.7168187215938151E-030
  -86.099999999999994          3.7659517523508408E-030
  -86.084999999999994          3.7721173612802258E-030
  -86.069999999999993          3.7269373769656933E-030
  -86.055000000000007          3.6210559928492746E-030
  -86.040000000000006          3.4441153169488122E-030
  -86.025000000000006          3.1847538672251905E-030
  -86.010000000000005          2.8306389211868703E-030
  -85.995000000000005          2.3685346005226888E-030
  -85.980000000000004          1.7844158470341152E-030
  -85.965000000000003          1.0636319574093370E-030
  -85.950000000000003          1.9112796407435026E-031
  -85.935000000000002         -8.4827151818614701E-031
  -85.920000000000002         -2.0695102786904579E-030
  -85.905000000000001         -3.4868788610362464E-030
  -85.890000000000001         -5.1135177874329368E-030
  -85.875000000000000         -6.9608487252304067E-030
  -85.859999999999999         -9.0379333252802749E-030
  -85.844999999999999         -1.1350768301483600E-029
  -85.829999999999998         -1.3901514306496743E-029
  -85.814999999999998         -1.6687681925403304E-029
  -85.799999999999997         -1.9701277796617693E-029
  -85.784999999999997         -2.2927934181828228E-029
  -85.769999999999996         -2.6346032517409160E-029
  -85.754999999999995         -2.9925854801538935E-029
  -85.739999999999995         -3.3628780120301511E-029
  -85.724999999999994         -3.7406569947121065E-029
  -85.709999999999994         -4.1200742215530063E-029
  -85.694999999999993         -4.4942110901541931E-029
  -85.680000000000007         -4.8550479078566171E-029
  -85.665000000000006         -5.1934548639442211E-029
  -85.650000000000006         -5.4992076778247396E-029
  -85.635000000000005         -5.7610294278206776E-029
  -85.620000000000005         -5.9666645791015485E-029
  -85.605000000000004         -6.1029819005652771E-029
  -85.590000000000003         -6.1561183077309209E-029
  -85.575000000000003         -6.1116515945805578E-029
  -85.560000000000002         -5.9548164988249213E-029
  -85.545000000000002         -5.6707532672368488E-029
  -85.530000000000001         -5.2447947395836162E-029
  -85.515000000000001         -4.6627862335536388E-029
  -85.500000000000000         -3.9114361241916604E-029
  -85.484999999999999         -2.9786959141362158E-029
  -85.469999999999999         -1.8541618201056915E-029
  -85.454999999999998         -5.2949294796066387E-030
  -85.439999999999998          1.0011593227196318E-029
  -85.424999999999997          2.7407195842642223E-029
  -85.409999999999997          4.6887610099723464E-029
  -85.394999999999996          6.8410927461923624E-029
  -85.379999999999995          9.1893682940277819E-029
  -85.364999999999995          1.1720726955348405E-028
  -85.349999999999994          1.4417473045083960E-028
  -85.334999999999994          1.7256812580489515E-028
  -85.319999999999993          2.0210631799201878E-028
  -85.305000000000007          2.3245362945996594E-028
  -85.290000000000006          2.6321901217059096E-028
  -85.275000000000006          2.9395610778515779E-028
  -85.260000000000005          3.2416415044400145E-028
  -85.245000000000005          3.5328972417760227E-028
  -85.230000000000004          3.8072943513438372E-028
  -85.215000000000003          4.0583349862523385E-028
  -85.200000000000003          4.2791014468825308E-028
  -85.185000000000002          4.4623122735971719E-028
  -85.170000000000002          4.6003865246526677E-028
  -85.155000000000001          4.6855145541245279E-028
  -85.140000000000001          4.7097427528249194E-028
  -85.125000000000000          4.6650650299750243E-028
  -85.109999999999999          4.5435244060096068E-028
  -85.094999999999999          4.3373227905838430E-028
  -85.079999999999998          4.0389430383835465E-028
  -85.064999999999998          3.6412784679139283E-028
  -85.049999999999997          3.1377751395742387E-028
  -85.034999999999997          2.5225847263471029E-028
  -85.019999999999996          1.7907300234031165E-028
  -85.004999999999995          9.3828225402635111E-029
  -84.989999999999995         -3.7447247694032400E-030
  -84.974999999999994         -1.1377014664117122E-028
  -84.959999999999994         -2.3620567802937254E-028
  -84.944999999999993         -3.7081891260418296E-028
  -84.930000000000007         -5.1716236054302411E-028
  -84.915000000000006         -6.7454747781665325E-028
  -84.900000000000006         -8.4201714946508283E-028
  -84.885000000000005         -1.0183180284287543E-027
  -84.870000000000005         -1.2018715743769991E-027
  -84.855000000000004         -1.3907464647615859E-027
  -84.840000000000003         -1.5826314873527528E-027
  -84.825000000000003         -1.7748099253709470E-027
  -84.810000000000002         -1.9641378907749509E-027
  -84.795000000000002         -2.1470261242239072E-027
  -84.780000000000001         -2.3194284394976528E-027
  -84.765000000000001         -2.4768370049683548E-027
  -84.750000000000000         -2.6142871584253719E-027
  -84.734999999999999         -2.7263735848867869E-027
  -84.719999999999999         -2.8072795907345614E-027
  -84.704999999999998         -2.8508225556612236E-027
  -84.689999999999998         -2.8505159476140771E-027
  -84.674999999999997         -2.7996509822248436E-027
  -84.659999999999997         -2.6914002378406702E-027
  -84.644999999999996         -2.5189434187494985E-027
  -84.629999999999995         -2.2756177703087208E-027
  -84.614999999999995         -1.9550927607911363E-027
  -84.599999999999994         -1.5515691262447032E-027
  -84.584999999999994         -1.0600027598485744E-027
  -84.569999999999993         -4.7635108650123222E-028
  -84.555000000000007          2.0216082180944493E-028
  -84.540000000000006          9.7675674911836936E-028
  -84.525000000000006          1.8468137052367804E-027
  -84.510000000000005          2.8095593140097326E-027
  -84.495000000000005          3.8597708386140367E-027
  -84.480000000000004          4.9894801290907794E-027
  -84.465000000000003          6.1876970588053093E-027
  -84.450000000000003          7.4401601165194390E-027
  -84.435000000000002          8.7291280207714621E-027
  -84.420000000000002          1.0033216786202858E-026
  -84.405000000000001          1.1327303041875085E-026
  -84.390000000000001          1.2582504001598155E-026
  -84.375000000000000          1.3766242175176771E-026
  -84.359999999999999          1.4842413309501471E-026
  -84.344999999999999          1.5771660640972712E-026
  -84.329999999999998          1.6511778570417216E-026
  -84.314999999999998          1.7018238056776795E-026
  -84.299999999999997          1.7244855299985041E-026
  -84.284999999999997          1.7144599090800019E-026
  -84.269999999999996          1.6670530664617123E-026
  -84.254999999999995          1.5776889925957713E-026
  -84.239999999999995          1.4420308013962098E-026
  -84.224999999999994          1.2561141586655012E-026
  -84.209999999999994          1.0164902631336324E-026
  -84.194999999999993          7.2037822603530382E-027
  -84.180000000000007          3.6582207291899570E-027
  -84.165000000000006         -4.8148556758471998E-028
  -84.150000000000006         -5.2135890411394557E-027
  -84.135000000000005         -1.0523339764402166E-026
  -84.120000000000005         -1.6381520994930508E-026
  -84.105000000000004         -2.2743118742506296E-026
  -84.090000000000003         -2.9546168907470793E-026
  -84.075000000000003         -3.6710831678793438E-026
  -84.060000000000002         -4.4138758288306129E-026
  -84.045000000000002         -5.1712765913728614E-026
  -84.030000000000001         -5.9296893145450888E-026
  -84.015000000000001         -6.6736862209719844E-026
  -84.000000000000000         -7.3861015740964225E-026
  -83.984999999999999         -8.0481728103257872E-026
  -83.969999999999999         -8.6397309749848731E-026
  -83.954999999999998         -9.1394441598608561E-026
  -83.939999999999998         -9.5251176401258266E-026
  -83.924999999999997         -9.7740396172804058E-026
  -83.909999999999997         -9.8633842777725074E-026
  -83.894999999999996         -9.7706561435541063E-026
  -83.879999999999995         -9.4741812612542551E-026
  -83.864999999999995         -8.9536359855046154E-026
  -83.849999999999994         -8.1906028793586053E-026
  -83.834999999999994         -7.1691518829114180E-026
  -83.819999999999993         -5.8764313426813553E-026
  -83.805000000000007         -4.3032627387766542E-026
  -83.790000000000006         -2.4447283246401186E-026
  -83.775000000000006         -3.0073168821873250E-027
  -83.760000000000005          2.1234708839646836E-026
  -83.745000000000005          4.8167883850649913E-026
  -83.730000000000004          7.7618717685129583E-026
  -83.715000000000003          1.0934765855437109E-025
  -83.700000000000003          1.4304645289668351E-025
  -83.685000000000002          1.7833647829243987E-025
  -83.670000000000002          2.1476812100351911E-025
  -83.655000000000001          2.5182143541171908E-025
  -83.640000000000001          2.8890800523745478E-025
  -83.625000000000000          3.2537401270171772E-025
  -83.609999999999999          3.6050494703960395E-025
  -83.594999999999999          3.9353149630519998E-025
  -83.579999999999998          4.2363699224637576E-025
  -83.564999999999998          4.4996606312283883E-025
  -83.549999999999997          4.7163518472074165E-025
  -83.534999999999997          4.8774392162058102E-025
  -83.519999999999996          4.9738784479452104E-025
  -83.504999999999995          4.9967273110268712E-025
  -83.489999999999995          4.9372940373894544E-025
  -83.474999999999994          4.7873005179087970E-025
  -83.459999999999994          4.5390514144544680E-025
  -83.444999999999993          4.1856101744792459E-025
  -83.430000000000007          3.7209826876986153E-025
  -83.415000000000006          3.1403019288463957E-025
  -83.400000000000006          2.4400165447348950E-025
  -83.385000000000005          1.6180789482769990E-025
  -83.370000000000005          6.7413082405841446E-026
  -83.355000000000004         -3.9031481735654816E-026
  -83.340000000000003         -1.5716987341711447E-025
  -83.325000000000003         -2.8642491762685192E-025
  -83.310000000000002         -4.2598291666708332E-025
  -83.295000000000002         -5.7477953693929416E-025
  -83.280000000000001         -7.3148813626803230E-025
  -83.265000000000001         -8.9450959499080157E-025
  -83.250000000000000         -1.0619650436465919E-024
  -83.234999999999999         -1.2316918200637397E-024
  -83.219999999999999         -1.4012426804990233E-024
  -83.204999999999998         -1.5678885606508305E-024
  -83.189999999999998         -1.7286267600910508E-024
  -83.174999999999997         -1.8801927751786531E-024
  -83.159999999999997         -2.0190800205823171E-024
  -83.144999999999996         -2.1415623118162312E-024
  -83.129999999999995         -2.2437263071448203E-024
  -83.114999999999995         -2.3215093729061962E-024
  -83.099999999999994         -2.3707455346598867E-024
  -83.084999999999994         -2.3872197113740697E-024
  -83.069999999999993         -2.3667306270827644E-024
  -83.055000000000007         -2.3051622027977537E-024
  -83.040000000000006         -2.1985632314600121E-024
  -83.025000000000006         -2.0432363220067686E-024
  -83.010000000000005         -1.8358353236933019E-024
  -82.995000000000005         -1.5734698501628824E-024
  -82.980000000000004         -1.2538167060496340E-024
  -82.965000000000003         -8.7523723003818649E-025
  -82.950000000000003         -4.3689868083546592E-025
  -82.935000000000002          6.1102232141928284E-026
  -82.920000000000002          6.1761576877653978E-025
  -82.905000000000001          1.2303180187972973E-024
  -82.890000000000001          1.8955954815683197E-024
  -82.875000000000000          2.6084382000881613E-024
  -82.859999999999999          3.3623456646749616E-024
  -82.844999999999999          4.1492490115596675E-024
  -82.829999999999998          4.9594529430018863E-024
  -82.814999999999998          5.7816045672841301E-024
  -82.799999999999997          6.6026868906093467E-024
  -82.784999999999997          7.4080499771066769E-024
  -82.769999999999996          8.1814768187170396E-024
  -82.754999999999995          8.9052898314153372E-024
  -82.739999999999995          9.5605034997956156E-024
  -82.724999999999994          1.0127023958880085E-023
  -82.709999999999994          1.0583893540999739E-023
  -82.694999999999993          1.0909592909521054E-023
  -82.680000000000007          1.1082387368783380E-023
  -82.665000000000006          1.1080723661134269E-023
  -82.650000000000006          1.0883677251062734E-023
  -82.635000000000005          1.0471440630099579E-023
  -82.620000000000005          9.8258494870411865E-024
  -82.605000000000004          8.9309443769140297E-024
  -82.590000000000003          7.7735513226009178E-024
  -82.575000000000003          6.3438793769767002E-024
  -82.560000000000002          4.6361205516266872E-024
  -82.545000000000002          2.6490410680951131E-024
  -82.530000000000001          3.8654741488843891E-025
  -82.515000000000001         -2.1417849678067298E-024
  -82.500000000000000         -4.9202366952510868E-024
  -82.484999999999999         -7.9265414288376704E-024
  -82.469999999999999         -1.1131568901919384E-023
  -82.454999999999998         -1.4499110398946584E-023
  -82.439999999999998         -1.7985785669880261E-023
  -82.424999999999997         -2.1541082373237303E-023
  -82.409999999999997         -2.5107544613846844E-023
  -82.394999999999996         -2.8621123197092178E-023
  -82.379999999999995         -3.2011694699386400E-023
  -82.364999999999995         -3.5203750932603565E-023
  -82.349999999999994         -3.8117288779179779E-023
  -82.334999999999994         -4.0668853066229900E-023
  -82.319999999999993         -4.2772789276665030E-023
  -82.305000000000007         -4.4342628788942086E-023
  -82.290000000000006         -4.5292676065205096E-023
  -82.275000000000006         -4.5539699969066004E-023
  -82.260000000000005         -4.5004776544679257E-023
  -82.245000000000005         -4.3615213837350549E-023
  -82.230000000000004         -4.1306539823017978E-023
  -82.215000000000003         -3.8024550291161997E-023
  -82.200000000000003         -3.3727318862391920E-023
  -82.185000000000002         -2.8387203850588802E-023
  -82.170000000000002         -2.1992735218190731E-023
  -82.155000000000001         -1.4550400557282244E-023
  -82.140000000000001         -6.0862476605232856E-024
  -82.125000000000000          3.3527365499884644E-024
  -82.109999999999999          1.3697503079219011E-023
  -82.094999999999999          2.4856128332465666E-023
  -82.079999999999998          3.6713349870714323E-023
  -82.064999999999998          4.9130471747330835E-023
  -82.049999999999997          6.1945719101037909E-023
  -82.034999999999997          7.4975012817324031E-023
  -82.019999999999996          8.8013192262846562E-023
  -82.004999999999995          1.0083576655664133E-022
  -81.989999999999995          1.1320109813710827E-022
  -81.974999999999994          1.2485310382175092E-022
  -81.960000000000008          1.3552442287257178E-022
  -81.944999999999993          1.4494000158002562E-022
  -81.930000000000007          1.5282115116351597E-022
  -81.915000000000006          1.5888996539246433E-022
  -81.900000000000006          1.6287406637351597E-022
  -81.885000000000005          1.6451166588210789E-022
  -81.870000000000005          1.6355682864242838E-022
  -81.855000000000004          1.5978484920334704E-022
  -81.840000000000003          1.5299780551918754E-022