  -90.000000000000000          0.0000000000000000     
  -89.984999999999999          0.0000000000000000     
  -89.969999999999999          0.0000000000000000     
  -89.954999999999998          0.0000000000000000     
  -89.939999999999998          0.0000000000000000     
  -89.924999999999997          0.0000000000000000     
  -89.909999999999997          0.0000000000000000     
  -89.894999999999996          0.0000000000000000     
  -89.879999999999995          0.0000000000000000     
  -89.864999999999995          0.0000000000000000     
  -89.849999999999994          0.0000000000000000     
  -89.834999999999994          0.0000000000000000     
  -89.819999999999993          0.0000000000000000     
  -89.805000000000007          0.0000000000000000     
  -89.790000000000006          0.0000000000000000     
  -89.775000000000006          0.0000000000000000     
  -89.760000000000005          0.0000000000000000     
  -89.745000000000005          0.0000000000000000     
  -89.730000000000004          0.0000000000000000     
  -89.715000000000003          0.0000000000000000     
  -89.700000000000003          0.0000000000000000     
  -89.685000000000002          0.0000000000000000     
  -89.670000000000002          0.0000000000000000     
  -89.655000000000001          0.0000000000000000     
  -89.640000000000001          0.0000000000000000     
  -89.625000000000000          0.0000000000000000     
  -89.609999999999999          0.0000000000000000     
  -89.594999999999999          0.0000000000000000     
  -89.579999999999998          0.0000000000000000     
  -89.564999999999998          0.0000000000000000     
  -89.549999999999997          0.0000000000000000     
  -89.534999999999997          0.0000000000000000     
  -89.519999999999996          0.0000000000000000     
  -89.504999999999995          0.0000000000000000     
  -89.489999999999995          0.0000000000000000     
  -89.474999999999994          0.0000000000000000     
  -89.459999999999994          0.0000000000000000     
  -89.444999999999993          0.0000000000000000     
  -89.430000000000007          0.0000000000000000     
  -89.415000000000006          0.0000000000000000     
  -89.400000000000006          5.0496479600789231E-038
  -89.385000000000005          1.0482959108263495E-037
  -89.370000000000005          1.6299932884034330E-037
  -89.355000000000004          1.6407652378545136E-037
  -89.340000000000003          4.2925465785021107E-038
  -89.325000000000003         -5.3431564254566305E-037
  -89.310000000000002         -2.0975587848554094E-036
  -89.295000000000002         -5.5575204728210648E-036
  -89.280000000000001         -1.2610639397760115E-035
  -89.265000000000001         -2.5946693119390713E-035
  -89.250000000000000         -4.9812261882315618E-035
  -89.234999999999999         -9.1548395438127292E-035
  -89.219999999999999         -1.6313902049514079E-034
  -89.204999999999998         -2.8368714855397941E-034
  -89.189999999999998         -4.8305209247939327E-034
  -89.174999999999997         -8.0711976787152221E-034
  -89.159999999999997         -1.3253518807948822E-033
  -89.144999999999996         -2.1414175280181466E-033
  -89.129999999999995         -3.4079553856795589E-033
  -89.114999999999995         -5.3468271555273635E-033
  -89.099999999999994         -8.2765800516908922E-033
  -89.084999999999994         -1.2649196427507115E-032
  -89.069999999999993         -1.9098697528191263E-032
  -89.055000000000007         -2.8504635981486576E-032
  -89.040000000000006         -4.2074069630902857E-032
  -89.025000000000006         -6.1446081350603811E-032
  -89.010000000000005         -8.8823432943331198E-032
  -88.995000000000005         -1.2713628505485149E-031
  -88.980000000000004         -1.8024315674943657E-031
  -88.965000000000003         -2.5317421169818165E-031
  -88.950000000000003         -3.5242134079742949E-031
  -88.935000000000002         -4.8627878516680809E-031
  -88.920000000000002         -6.6523566897780088E-031
  -88.905000000000001         -9.0241977208106905E-031
  -88.890000000000001         -1.2140866767157158E-030
  -88.875000000000000         -1.6201436148117867E-030
  -88.859999999999999         -2.1446892549961674E-030
  -88.844999999999999         -2.8165403240617519E-030
  -88.829999999999998         -3.6697037795382810E-030
  -88.814999999999998         -4.7437369811614339E-030
  -88.799999999999997         -6.0839175262966355E-030
  -88.784999999999997         -7.7411241958712047E-030
  -88.769999999999996         -9.7712973554475533E-030
  -88.754999999999995         -1.2234323270024933E-029
  -88.739999999999995         -1.5192138642908622E-029
  -88.724999999999994         -1.8705824793674693E-029
  -88.709999999999994         -2.2831408980427970E-029
  -88.694999999999993         -2.7614049746466026E-029
  -88.680000000000007         -3.3080218096094803E-029
  -88.665000000000006         -3.9227485552025049E-029
  -88.650000000000006         -4.6011441373445411E-029
  -88.635000000000005         -5.3329264975449914E-029
  -88.620000000000005         -6.0999419405186834E-029
  -88.605000000000004         -6.8737005457101611E-029
  -88.590000000000003         -7.6124276889194503E-029
  -88.575000000000003         -8.2575883406055466E-029
  -88.560000000000002         -8.7298570574777855E-029
  -88.545000000000002         -8.9245113988101111E-029
  -88.530000000000001         -8.7062656193652571E-029
  -88.515000000000001         -7.9035651019345002E-029
  -88.500000000000000         -6.3024269926342659E-029
  -88.484999999999999         -3.6399386827110532E-029
  -88.469999999999999          4.0241034773281444E-030
  -88.454999999999998          6.2053185955727234E-029
  -88.439999999999998          1.4217868461941451E-028
  -88.424999999999997          2.4962916900050853E-028
  -88.409999999999997          3.9041185533679611E-028
  -88.394999999999996          5.7133414764677053E-028
  -88.379999999999995          7.9999903957188929E-028
  -88.364999999999995          1.0847655004050305E-027
  -88.349999999999994          1.4346649860274036E-027
  -88.334999999999994          1.8592627238043051E-027
  -88.319999999999993          2.3684535640110132E-027
  -88.305000000000007          2.9721792533169521E-027
  -88.290000000000006          3.6800553821554639E-027
  -88.275000000000006          4.5008948133590703E-027
  -88.260000000000005          5.4421183475964896E-027
  -88.245000000000005          6.5090376996543418E-027
  -88.230000000000004          7.7040071262966460E-027
  -88.215000000000003          9.0254323427154383E-027
  -88.200000000000003          1.0466644238699295E-026
  -88.185000000000002          1.2014625838940091E-026
  -88.170000000000002          1.3648620240869198E-026
  -88.155000000000001          1.5338617604093176E-026
  -88.140000000000001          1.7043755858167948E-026
  -88.125000000000000          1.8710669795450477E-026
  -88.109999999999999          2.0271828608370771E-026
  -88.094999999999999          2.1643916567534636E-026
  -88.079999999999998          2.2726332337111017E-026
  -88.064999999999998          2.3399871638750032E-026
  -88.049999999999997          2.3525698034620694E-026
  -88.034999999999997          2.2944698896437508E-026
  -88.019999999999996          2.1477335953296784E-026
  -88.004999999999995          1.8924105974119337E-026
  -87.989999999999995          1.5066741007191829E-026
  -87.974999999999994          9.6702829919028612E-027
  -87.959999999999994          2.4861313502869732E-027
  -87.944999999999993         -6.7437954635515241E-027
  -87.930000000000007         -1.8281695863357442E-026
  -87.915000000000006         -3.2387223724233068E-026
  -87.900000000000006         -4.9309482677045336E-026
  -87.885000000000005         -6.9277629111041172E-026
  -87.870000000000005         -9.2490126255129792E-026
  -87.855000000000004         -1.1910267553047919E-025
  -87.840000000000003         -1.4921495074505922E-025
  -87.825000000000003         -1.8285631847866187E-025
  -87.810000000000002         -2.1997070797725826E-025
  -87.795000000000002         -2.6040106196499952E-025
  -87.780000000000001         -3.0387363338182233E-025
  -87.765000000000001         -3.4998243003247403E-025
  -87.750000000000000         -3.9817470694142757E-025
  -87.734999999999999         -4.4773753106558947E-025
  -87.719999999999999         -4.9778636746307738E-025
  -87.704999999999998         -5.4725637717135937E-025
  -87.689999999999998         -5.9489652540236807E-025
  -87.674999999999997         -6.3926802847259351E-025
  -87.659999999999997         -6.7874681899341192E-025
  -87.644999999999996         -7.1153133587252483E-025
  -87.629999999999995         -7.3565578703792805E-025
  -87.614999999999995         -7.4900923001105673E-025
  -87.599999999999994         -7.4936116058239845E-025
  -87.584999999999994         -7.3439331376673498E-025
  -87.569999999999993         -7.0173757843039940E-025
  -87.555000000000007         -6.4902046932480799E-025
  -87.540000000000006         -5.7391262810826285E-025
  -87.525000000000006         -4.7418355057125155E-025
  -87.510000000000005         -3.4776015955865986E-025
  -87.495000000000005         -1.9278801564563619E-025
  -87.480000000000004         -7.6942041428797150E-027
  -87.465000000000003          2.0875024628423404E-025
  -87.450000000000003          4.5736976923737091E-025
  -87.435000000000002          7.3852738864435227E-025
  -87.420000000000002          1.0520736153636387E-024
  -87.405000000000001          1.3973031091383496E-024
  -87.390000000000001          1.7729203138430790E-024
  -87.375000000000000          2.1770170735557106E-024
  -87.359999999999999          2.6070608489476454E-024
  -87.344999999999999          3.0598987601959413E-024
  -87.329999999999998          3.5317744488851622E-024
  -87.314999999999998          4.0183584491522289E-024
  -87.299999999999997          4.5147933499732430E-024
  -87.284999999999997          5.0157507903638891E-024
  -87.269999999999996          5.5154996958477366E-024
  -87.254999999999995          6.0079804313813303E-024
  -87.239999999999995          6.4868856595969757E-024
  -87.224999999999994          6.9457404101846186E-024
  -87.209999999999994          7.3779785993996519E-024
  -87.194999999999993          7.7770104776703120E-024
  -87.180000000000007          8.1362727222651599E-024
  -87.165000000000006          8.4492635416033642E-024
  -87.150000000000006          8.7095489861419423E-024
  -87.135000000000005          8.9107361271049831E-024
  -87.120000000000005          9.0464170473593762E-024
  -87.105000000000004          9.1100702338016596E-024
  -87.090000000000003          9.0949264710041319E-024
  -87.075000000000003          8.9937850366239355E-024
  -87.060000000000002          8.7988046532631737E-024
  -87.045000000000002          8.5012486863965237E-024
  -87.030000000000001          8.0912082541935044E-024
  -87.015000000000001          7.5573087712617341E-024
  -87.000000000000000          6.8864054483375149E-024
  -86.984999999999999          6.0632957524858803E-024
  -86.969999999999999          5.0704547442668927E-024
  -86.954999999999998          3.8878224797216872E-024
  -86.939999999999998          2.4926647764226993E-024
  -86.924999999999997          8.5952992473149147E-025
  -86.909999999999997         -1.0396698623127830E-024
  -86.894999999999996         -3.2354266224948582E-024
  -86.879999999999995         -5.7602295921962615E-024
  -86.864999999999995         -8.6479570932450014E-024
  -86.849999999999994         -1.1933048426180311E-023
  -86.834999999999994         -1.5649441570436158E-023
  -86.819999999999993         -1.9829255786629518E-023
  -86.805000000000007         -2.4501230855259406E-023
  -86.790000000000006         -2.9688919007512098E-023
  -86.775000000000006         -3.5408640197794808E-023
  -86.760000000000005         -4.1667229116990370E-023
  -86.745000000000005         -4.8459624433530887E-023
  -86.730000000000004         -5.5766331816726536E-023
  -86.715000000000003         -6.3550823851221964E-023
  -86.700000000000003         -7.1756958884114402E-023
  -86.685000000000002         -8.0306513468042134E-023
  -86.670000000000002         -8.9096904130890221E-023
  -86.655000000000001         -9.7999224689858306E-023
  -86.640000000000001         -1.0685667484053742E-022
  -86.625000000000000         -1.1548358196938750E-022
  -86.609999999999999         -1.2366504143316463E-022
  -86.594999999999999         -1.3115730152304274E-022
  -86.579999999999998         -1.3768913292714514E-022
  -86.564999999999998         -1.4296406278462803E-022
  -86.549999999999997         -1.4666376994301664E-022
  -86.534999999999997         -1.4845251520104891E-022
  -86.519999999999996         -1.4798285897251653E-022
  -86.504999999999995         -1.4490237607029020E-022
  -86.489999999999995         -1.3886172102021462E-022
  -86.474999999999994         -1.2952358952099175E-022
  -86.459999999999994         -1.1657277799844426E-022
  -86.444999999999993         -9.9726968911811641E-023
  -86.430000000000007         -7.8748216568530273E-023
  -86.415000000000006         -5.3454824214022411E-023
  -86.400000000000006         -2.3733281074913992E-023
  -86.385000000000005          1.0449915771439718E-023
  -86.370000000000005          4.9037026439941975E-023
  -86.355000000000004          9.1868715227234427E-023
  -86.340000000000003          1.3867498186673070E-022
  -86.325000000000003          1.8906783301080689E-022
  -86.310000000000002          2.4253590377714977E-022
  -86.295000000000002          2.9844170620191938E-022
  -86.280000000000001          3.5602150933289143E-022
  -86.265000000000001          4.1438840632065680E-022
  -86.250000000000000          4.7253868841473571E-022
  -86.234999999999999          5.2936171519122390E-022
  -86.219999999999999          5.8365352082568581E-022
  -86.204999999999998          6.3413385348870739E-022
  -86.189999999999998          6.7946702651734291E-022
  -86.174999999999997          7.1828569783824193E-022
  -86.159999999999997          7.4921818348763167E-022
  -86.144999999999996          7.7091789158941263E-022
  -86.129999999999995          7.8209517971395500E-022
  -86.114999999999995          7.8155052490144145E-022
  -86.099999999999994          7.6820840050458088E-022
  -86.084999999999994          7.4115115303132229E-022
  -86.069999999999993          6.9965191973270778E-022
  -86.055000000000007          6.4320588011649386E-022
  -86.040000000000006          5.7155862969619035E-022
  -86.025000000000006          4.8473117110453787E-022
  -86.010000000000005          3.8304018466332834E-022
  -85.995000000000005          2.6711352792247078E-022
  -85.980000000000004          1.3789951266423672E-022
  -85.965000000000003         -3.3299846181905326E-024
  -85.950000000000003         -1.5498331161964366E-022
  -85.935000000000002         -3.1515975137634241E-022
  -85.920000000000002         -4.8166726059220843E-022
  -85.905000000000001         -6.5204713021962335E-022
  -85.890000000000001         -8.2360486384184187E-022
  -85.875000000000000         -9.9344724782464989E-022
  -85.859999999999999         -1.1585242051205519E-021
  -85.844999999999999         -1.3156748899891850E-021
  -85.829999999999998         -1.4616769129178043E-021
  -85.814999999999998         -1.5932973830772949E-021
  -85.799999999999997         -1.7073444051620642E-021
  -85.784999999999997         -1.8007178694105641E-021
  -85.769999999999996         -1.8704585250644826E-021
  -85.754999999999995         -1.9137940246020599E-021
  -85.739999999999995         -1.9281804241325903E-021
  -85.724999999999994         -1.9113391399521100E-021
  -85.709999999999994         -1.8612882505441163E-021
  -85.694999999999993         -1.7763689518188848E-021
  -85.680000000000007         -1.6552650451332724E-021
  -85.665000000000006         -1.4970191941362519E-021
  -85.650000000000006         -1.3010432241368905E-021
  -85.635000000000005         -1.0671267049109986E-021
  -85.620000000000005         -7.9544326158837180E-022
  -85.605000000000004         -4.8655739041101176E-022
  -85.590000000000003         -1.4143397555108688E-022
  -85.575000000000003          2.3854807937262548E-022
  -85.560000000000002          6.5157522731523290E-022
  -85.545000000000002          1.0953700962631220E-021
  -85.530000000000001          1.5671514277217476E-021
  -85.515000000000001          2.0635817720821731E-021
  -85.500000000000000          2.5807031428147533E-021
  -85.484999999999999          3.1138569944189087E-021
  -85.469999999999999          3.6575947592855865E-021
  -85.454999999999998          4.2055740462239077E-021
  -85.439999999999998          4.7504481746908873E-021
  -85.424999999999997          5.2837510642081443E-021
  -85.409999999999997          5.7957815179334371E-021
  -85.394999999999996          6.2754949783226920E-021
  -85.379999999999995          6.7104065919019704E-021
  -85.364999999999995          7.0865209312271438E-021
  -85.349999999999994          7.3882907974119799E-021
  -85.334999999999994          7.5986152006442253E-021
  -85.319999999999993          7.6988971174256418E-021
  -85.305000000000007          7.6691565816713793E-021
  -85.290000000000006          7.4882189006110740E-021
  -85.275000000000006          7.1339884968080432E-021
  -85.260000000000005          6.5838103957804942E-021
  -85.245000000000005          5.8149302644378995E-021
  -85.230000000000004          4.8050558276100252E-021
  -85.215000000000003          3.5330200665653934E-021
  -85.200000000000003          1.9795478151063148E-021
  -85.185000000000002          1.2811642574914575E-022
  -85.170000000000002         -2.0340971049402408E-021
  -85.155000000000001         -4.5151972814665959E-021
  -85.140000000000001         -7.3174981925855056E-021
  -85.125000000000000         -1.0436422274101477E-020
  -85.109999999999999         -1.3859396623041774E-020
  -85.094999999999999         -1.7564778026367203E-020
  -85.079999999999998         -2.1520848469671619E-020
  -85.064999999999998         -2.5684919294116175E-020
  -85.049999999999997         -3.0002580756205637E-020
  -85.034999999999997         -3.4407139803465781E-020
  -85.019999999999996         -3.8819311497300827E-020
  -85.004999999999995         -4.3147185085663624E-020
  -84.989999999999995         -4.7286503499629811E-020
  -84.974999999999994         -5.1121316050599915E-020
  -84.959999999999994         -5.4525038255459180E-020
  -84.944999999999993         -5.7361892940301002E-020
  -84.930000000000007         -5.9488845713813330E-020
  -84.915000000000006         -6.0757947568622813E-020
  -84.900000000000006         -6.1019136309384967E-020
  -84.885000000000005         -6.0123448340006356E-020
  -84.870000000000005         -5.7926669890567188E-020
  -84.855000000000004         -5.4293279049928014E-020
  -84.840000000000003         -4.9100752921028685E-020
  -84.825000000000003         -4.2244036334900697E-020
  -84.810000000000002         -3.3640188279264270E-020
  -84.795000000000002         -2.3233028327125424E-020
  -84.780000000000001         -1.0997727327616928E-020
  -84.765000000000001          3.0548143528688438E-021
  -84.750000000000000          1.8873920592703081E-020
  -84.734999999999999          3.6365564220693233E-020
  -84.719999999999999          5.5389396759137345E-020
  -84.704999999999998          7.5756528607102093E-020
  -84.689999999999998          9.7228166292675343E-020
  -84.674999999999997          1.1951528127760370E-019
  -84.659999999999997          1.4227934343385131E-019
  -84.644999999999996          1.6513427913520611E-019
  -84.629999999999995          1.8764970889389617E-019
  -84.614999999999995          2.0935545807986754E-019
  -84.599999999999994          2.2974745058264862E-019
  -84.584999999999994          2.4829485616883060E-019
  -84.569999999999993          2.6444860785743726E-019
  -84.555000000000007          2.7765097912045471E-019
  -84.540000000000006          2.8734636308018875E-019
  -84.525000000000006          2.9299290473662885E-019
  -84.510000000000005          2.9407485697784821E-019
  -84.495000000000005          2.9011545357828657E-019
  -84.480000000000004          2.8069014408855110E-019
  -84.465000000000003          2.6543975117703478E-019
  -84.450000000000003          2.4408331777880515E-019
  -84.435000000000002          2.1643047603070136E-019
  -84.420000000000002          1.8239274345657440E-019
  -84.405000000000001          1.4199379810145859E-019
  -84.390000000000001          9.5378105766866605E-020
  -84.375000000000000          4.2817831492548272E-020
  -84.359999999999999         -1.5282376690005994E-020
  -84.344999999999999         -7.8382852901352098E-020
  -84.329999999999998         -1.4580885848412972E-019
  -84.314999999999998         -2.1675316694247654E-019
  -84.299999999999997         -2.9028145838746831E-019
  -84.284999999999997         -3.6534034415841289E-019
  -84.269999999999996         -4.4076825588013268E-019
  -84.254999999999995         -5.1530891299731279E-019
  -84.239999999999995         -5.8762760789281061E-019
  -84.224999999999994         -6.5632950725870860E-019
  -84.209999999999994         -7.1998012481647496E-019
  -84.194999999999993         -7.7712791368744397E-019
  -84.180000000000007         -8.2632784104027379E-019
  -84.165000000000006         -8.6616635860568785E-019
  -84.150000000000006         -8.9528694187788748E-019
  -84.135000000000005         -9.1241588780990587E-019
  -84.120000000000005         -9.1638749212350267E-019
  -84.105000000000004         -9.0616943341421169E-019
  -84.090000000000003         -8.8088593420849241E-019
  -84.075000000000003         -8.3984045673178691E-019
  -84.060000000000002         -7.8253565864079767E-019
  -84.045000000000002         -7.0869169439454036E-019
  -84.030000000000001         -6.1826156979446429E-019
  -84.015000000000001         -5.1144417007910019E-019
  -84.000000000000000         -3.8869387589868110E-019
  -83.984999999999999         -2.5072743925398420E-019
  -83.969999999999999         -9.8527499013934224E-020
  -83.954999999999998          6.6656927945907910E-020
  -83.939999999999998          2.4331318677912413E-019
  -83.924999999999997          4.2967067153515055E-019
  -83.909999999999997          6.2370969150146824E-019
  -83.894999999999996          8.2317281908763169E-019
  -83.879999999999995          1.0255792620884119E-018
  -83.864999999999995          1.2282418208863539E-018
  -83.849999999999994          1.4282857326601062E-018
  -83.834999999999994          1.6226704882730769E-018
  -83.819999999999993          1.8082139239087746E-018
  -83.805000000000007          1.9816178636697971E-018
  -83.790000000000006          2.1394972776944245E-018
  -83.775000000000006          2.2784100606586703E-018
  -83.760000000000005          2.3948917733620094E-018
  -83.745000000000005          2.4854905911082580E-018
  -83.730000000000004          2.5468068015798232E-018
  -83.715000000000003          2.5755349910489430E-018
  -83.700000000000003          2.5685091257210707E-018
  -83.685000000000002          2.5227517689813217E-018
  -83.670000000000002          2.4355272277488301E-018
  -83.655000000000001          2.3043980075535551E-018
  -83.640000000000001          2.1272854035161510E-018
  -83.625000000000000          1.9025336068454398E-018
  -83.609999999999999          1.6289768098656046E-018
  -83.594999999999999          1.3060100333561394E-018
  -83.579999999999998          9.3366088446998813E-019
  -83.564999999999998          5.1266307241048536E-019
  -83.549999999999997          4.4529352190451448E-020
  -83.534999999999997         -4.6837747677562137E-019
  -83.519999999999996         -1.0227773945585417E-018
  -83.504999999999995         -1.6144115034470412E-018
  -83.489999999999995         -2.2379890528456541E-018
  -83.474999999999994         -2.8871450947359380E-018
  -83.459999999999994         -3.5544124629332235E-018
  -83.444999999999993         -4.2312083314016606E-018
  -83.430000000000007         -4.9078433132409560E-018
  -83.415000000000006         -5.5735495848272009E-018
  -83.400000000000006         -6.2165369272993706E-018
  -83.385000000000005         -6.8240750310302740E-018
  -83.370000000000005         -7.3826059921898607E-018
  -83.355000000000004         -7.8778886557621116E-018
  -83.340000000000003         -8.2951748050155123E-018
  -83.325000000000003         -8.6194213333301737E-018
  -83.310000000000002         -8.8355305401657777E-018
  -83.295000000000002         -8.9286288909280084E-018
  -83.280000000000001         -8.8843672835309084E-018
  -83.265000000000001         -8.6892585380868007E-018
  -83.250000000000000         -8.3310256399441731E-018
  -83.234999999999999         -7.7989772796857778E-018
  -83.219999999999999         -7.0843891833910181E-018
  -83.204999999999998         -6.1808899923917041E-018
  -83.189999999999998         -5.0848413527635215E-018
  -83.174999999999997         -3.7957072514695359E-018
  -83.159999999999997         -2.3163979166998618E-018
  -83.144999999999996         -6.5358068268561832E-019
  -83.129999999999995          1.1820542268305008E-018
  -83.114999999999995          3.1755817335622599E-018
  -83.099999999999994          5.3076970446751080E-018
  -83.084999999999994          7.5546413616274143E-018
  -83.069999999999993          9.8882212672160745E-018
  -83.055000000000007          1.2275910365394278E-017
  -83.040000000000006          1.4681056283219802E-017
  -83.025000000000006          1.7063194172307162E-017
  -83.010000000000005          1.9378457817592061E-017
  -82.995000000000005          2.1580113168826476E-017
  -82.980000000000004          2.3619191133747269E-017
  -82.965000000000003          2.5445220460098905E-017
  -82.950000000000003          2.7007068151135804E-017
  -82.935000000000002          2.8253852673018606E-017
  -82.920000000000002          2.9135951460800255E-017
  -82.905000000000001          2.9606051437803941E-017
  -82.890000000000001          2.9620245857115351E-017
  -82.875000000000000          2.9139164230299411E-017
  -82.859999999999999          2.8129097293033359E-017
  -82.844999999999999          2.6563095500960218E-017
  -82.829999999999998          2.4422034438317762E-017
  -82.814999999999998          2.1695594199783779E-017
  -82.799999999999997          1.8383156054260080E-017
  -82.784999999999997          1.4494563451036046E-017
  -82.769999999999996          1.0050741578067431E-017
  -82.754999999999995          5.0841531384938774E-018
  -82.739999999999995         -3.6094729132272033E-019
  -82.724999999999994         -6.2284586678777911E-018
  -82.709999999999994         -1.2450605120501190E-017
  -82.694999999999993         -1.8948347060121638E-017
  -82.680000000000007         -2.5632021003470530E-017
  -82.665000000000006         -3.2402236236865945E-017
  -82.650000000000006         -3.9151001022616635E-017
  -82.635000000000005         -4.5763089101393963E-017
  -82.620000000000005         -5.2117622915924330E-017
  -82.605000000000004         -5.8089850394944938E-017
  -82.590000000000003         -6.3553120260506570E-017
  -82.575000000000003         -6.8380983066729467E-017
  -82.560000000000002         -7.2449408043844980E-017
  -82.545000000000002         -7.5639128982412762E-017
  -82.530000000000001         -7.7837966956480822E-017
  -82.515000000000001         -7.8943225838639476E-017
  -82.500000000000000         -7.8863948848732394E-017
  -82.484999999999999         -7.7523201572347243E-017
  -82.469999999999999         -7.4860156455959325E-017
  -82.454999999999998         -7.0831998631062893E-017
  -82.439999999999998         -6.5415679537069772E-017
  -82.424999999999997         -5.8609326437073140E-017
  -82.409999999999997         -5.0433453410264313E-017
  -82.394999999999996         -4.0931801767435096E-017
  -82.379999999999995         -3.0171856211680013E-017
  -82.364999999999995         -1.8244978841655547E-017
  -82.349999999999994         -5.2661891215371971E-018
  -82.334999999999994          8.6264598131623874E-018
  -82.319999999999993          2.3272890315940719E-017
  -82.305000000000007          3.8492389892734563E-017
  -82.290000000000006          5.4085369787902225E-017
  -82.275000000000006          6.9835490838397811E-017
  -82.260000000000005          8.5512105310939484E-017
  -82.245000000000005          1.0087300810472682E-016
  -82.230000000000004          1.1566745761503784E-016
  -82.215000000000003          1.2963945136845473E-016
  -82.200000000000003          1.4253116047676718E-016
  -82.185000000000002          1.5408650305721855E-016
  -82.170000000000002          1.6405492941098899E-016
  -82.155000000000001          1.7219510132256003E-016
  -82.140000000000001          1.7827875664753643E-016
  -82.125000000000000          1.8209441508179044E-016
  -82.109999999999999          1.8345108393060601E-016
  -82.094999999999999          1.8218185799870465E-016
  -82.079999999999998          1.7814729448714460E-016
  -82.064999999999998          1.7123865554132212E-016
  -82.049999999999997          1.6138085963139697E-016
  -82.034999999999997          1.4853527411404048E-016
  -82.019999999999996          1.3270208427770987E-016
  -82.004999999999995          1.1392239769012657E-016
  -81.989999999999995          9.2279951499060547E-017
  -81.974999999999994          6.7902475625979792E-017
  -81.960000000000008          4.0962599356001670E-017
  -81.944999999999993          1.1678302978507380E-017
  -81.930000000000007         -1.9687082212858045E-017
  -81.915000000000006         -5.2825401661416553E-017
  -81.900000000000006         -8.7384723103751331E-017
  -81.885000000000005         -1.2297098596784824E-016
  -81.870000000000005         -1.5915017189502316E-016
  -81.855000000000004         -1.9545117174792510E-016
  -81.840000000000003         -2.3136924653421908E-016