  -90.000000000000000          0.0000000000000000     
  -89.984999999999999          0.0000000000000000     
  -89.969999999999999          0.0000000000000000     
  -89.954999999999998          0.0000000000000000     
  -89.939999999999998          0.0000000000000000     
  -89.924999999999997          0.0000000000000000     
  -89.909999999999997          0.0000000000000000     
  -89.894999999999996          0.0000000000000000     
  -89.879999999999995          0.0000000000000000     
  -89.864999999999995          0.0000000000000000     
  -89.849999999999994          0.0000000000000000     
  -89.834999999999994          0.0000000000000000     
  -89.819999999999993          0.0000000000000000     
  -89.805000000000007          0.0000000000000000     
  -89.790000000000006          0.0000000000000000     
  -89.775000000000006          0.0000000000000000     
  -89.760000000000005          0.0000000000000000     
  -89.745000000000005          0.0000000000000000     
  -89.730000000000004          0.0000000000000000     
  -89.715000000000003          0.0000000000000000     
  -89.700000000000003          0.0000000000000000     
  -89.685000000000002          0.0000000000000000     
  -89.670000000000002          0.0000000000000000     
  -89.655000000000001          0.0000000000000000     
  -89.640000000000001          0.0000000000000000     
  -89.625000000000000          0.0000000000000000     
  -89.609999999999999          0.0000000000000000     
  -89.594999999999999          0.0000000000000000     
  -89.579999999999998          0.0000000000000000     
  -89.564999999999998          0.0000000000000000     
  -89.549999999999997          0.0000000000000000     
  -89.534999999999997          0.0000000000000000     
  -89.519999999999996          0.0000000000000000     
  -89.504999999999995          0.0000000000000000     
  -89.489999999999995          0.0000000000000000     
  -89.474999999999994          0.0000000000000000     
  -89.459999999999994          0.0000000000000000     
  -89.444999999999993          0.0000000000000000     
  -89.430000000000007          0.0000000000000000     
  -89.415000000000006          0.0000000000000000     
  -89.400000000000006          0.0000000000000000     
  -89.385000000000005          0.0000000000000000     
  -89.370000000000005          0.0000000000000000     
  -89.355000000000004          0.0000000000000000     
  -89.340000000000003          0.0000000000000000     
  -89.325000000000003          0.0000000000000000     
  -89.310000000000002          0.0000000000000000     
  -89.295000000000002          0.0000000000000000     
  -89.280000000000001          0.0000000000000000     
  -89.265000000000001          0.0000000000000000     
  -89.250000000000000          0.0000000000000000     
  -89.234999999999999          0.0000000000000000     
  -89.219999999999999          0.0000000000000000     
  -89.204999999999998          0.0000000000000000     
  -89.189999999999998          0.0000000000000000     
  -89.174999999999997          0.0000000000000000     
  -89.159999999999997          0.0000000000000000     
  -89.144999999999996          0.0000000000000000     
  -89.129999999999995          0.0000000000000000     
  -89.114999999999995          0.0000000000000000     
  -89.099999999999994          0.0000000000000000     
  -89.084999999999994          0.0000000000000000     
  -89.069999999999993          0.0000000000000000     
  -89.055000000000007          0.0000000000000000     
  -89.040000000000006          0.0000000000000000     
  -89.025000000000006          0.0000000000000000     
  -89.010000000000005          0.0000000000000000     
  -88.995000000000005          0.0000000000000000     
  -88.980000000000004          0.0000000000000000     
  -88.965000000000003          0.0000000000000000     
  -88.950000000000003          0.0000000000000000     
  -88.935000000000002          0.0000000000000000     
  -88.920000000000002          0.0000000000000000     
  -88.905000000000001          0.0000000000000000     
  -88.890000000000001          0.0000000000000000     
  -88.875000000000000          0.0000000000000000     
  -88.859999999999999          0.0000000000000000     
  -88.844999999999999          0.0000000000000000     
  -88.829999999999998          0.0000000000000000     
  -88.814999999999998          0.0000000000000000     
  -88.799999999999997          0.0000000000000000     
  -88.784999999999997          0.0000000000000000     
  -88.769999999999996          0.0000000000000000     
  -88.754999999999995          0.0000000000000000     
  -88.739999999999995          0.0000000000000000     
  -88.724999999999994          0.0000000000000000     
  -88.709999999999994          0.0000000000000000     
  -88.694999999999993          0.0000000000000000     
  -88.680000000000007          0.0000000000000000     
  -88.665000000000006          0.0000000000000000     
  -88.650000000000006          0.0000000000000000     
  -88.635000000000005          0.0000000000000000     
  -88.620000000000005          0.0000000000000000     
  -88.605000000000004          0.0000000000000000     
  -88.590000000000003          0.0000000000000000     
  -88.575000000000003          0.0000000000000000     
  -88.560000000000002          0.0000000000000000     
  -88.545000000000002          0.0000000000000000     
  -88.530000000000001          0.0000000000000000     
  -88.515000000000001          0.0000000000000000     
  -88.500000000000000          0.0000000000000000     
  -88.484999999999999          0.0000000000000000     
  -88.469999999999999          0.0000000000000000     
  -88.454999999999998          0.0000000000000000     
  -88.439999999999998          0.0000000000000000     
  -88.424999999999997          0.0000000000000000     
  -88.409999999999997          0.0000000000000000     
  -88.394999999999996          0.0000000000000000     
  -88.379999999999995          0.0000000000000000     
  -88.364999999999995          0.0000000000000000     
  -88.349999999999994          0.0000000000000000     
  -88.334999999999994          0.0000000000000000     
  -88.319999999999993          0.0000000000000000     
  -88.305000000000007          0.0000000000000000     
  -88.290000000000006          0.0000000000000000     
  -88.275000000000006          0.0000000000000000     
  -88.260000000000005          0.0000000000000000     
  -88.245000000000005          0.0000000000000000     
  -88.230000000000004          0.0000000000000000     
  -88.215000000000003          0.0000000000000000     
  -88.200000000000003          0.0000000000000000     
  -88.185000000000002          0.0000000000000000     
  -88.170000000000002          0.0000000000000000     
  -88.155000000000001          0.0000000000000000     
  -88.140000000000001          0.0000000000000000     
  -88.125000000000000          0.0000000000000000     
  -88.109999999999999          0.0000000000000000     
  -88.094999999999999          0.0000000000000000     
  -88.079999999999998          0.0000000000000000     
  -88.064999999999998          0.0000000000000000     
  -88.049999999999997          0.0000000000000000     
  -88.034999999999997          0.0000000000000000     
  -88.019999999999996          0.0000000000000000     
  -88.004999999999995          0.0000000000000000     
  -87.989999999999995          0.0000000000000000     
  -87.974999999999994          0.0000000000000000     
  -87.959999999999994          0.0000000000000000     
  -87.944999999999993          0.0000000000000000     
  -87.930000000000007          0.0000000000000000     
  -87.915000000000006          0.0000000000000000     
  -87.900000000000006          0.0000000000000000     
  -87.885000000000005          0.0000000000000000     
  -87.870000000000005          0.0000000000000000     
  -87.855000000000004          0.0000000000000000     
  -87.840000000000003          0.0000000000000000     
  -87.825000000000003          0.0000000000000000     
  -87.810000000000002          0.0000000000000000     
  -87.795000000000002          0.0000000000000000     
  -87.780000000000001          0.0000000000000000     
  -87.765000000000001          0.0000000000000000     
  -87.750000000000000          0.0000000000000000     
  -87.734999999999999          0.0000000000000000     
  -87.719999999999999          0.0000000000000000     
  -87.704999999999998          0.0000000000000000     
  -87.689999999999998          0.0000000000000000     
  -87.674999999999997          0.0000000000000000     
  -87.659999999999997          0.0000000000000000     
  -87.644999999999996          0.0000000000000000     
  -87.629999999999995          0.0000000000000000     
  -87.614999999999995          0.0000000000000000     
  -87.599999999999994          0.0000000000000000     
  -87.584999999999994          0.0000000000000000     
  -87.569999999999993          0.0000000000000000     
  -87.555000000000007          0.0000000000000000     
  -87.540000000000006          0.0000000000000000     
  -87.525000000000006          0.0000000000000000     
  -87.510000000000005          0.0000000000000000     
  -87.495000000000005          0.0000000000000000     
  -87.480000000000004          0.0000000000000000     
  -87.465000000000003          0.0000000000000000     
  -87.450000000000003          0.0000000000000000     
  -87.435000000000002          0.0000000000000000     
  -87.420000000000002          0.0000000000000000     
  -87.405000000000001          0.0000000000000000     
  -87.390000000000001          0.0000000000000000     
  -87.375000000000000          0.0000000000000000     
  -87.359999999999999          0.0000000000000000     
  -87.344999999999999          0.0000000000000000     
  -87.329999999999998          0.0000000000000000     
  -87.314999999999998          0.0000000000000000     
  -87.299999999999997          0.0000000000000000     
  -87.284999999999997          0.0000000000000000     
  -87.269999999999996          0.0000000000000000     
  -87.254999999999995          0.0000000000000000     
  -87.239999999999995          0.0000000000000000     
  -87.224999999999994          0.0000000000000000     
  -87.209999999999994          0.0000000000000000     
  -87.194999999999993          0.0000000000000000     
  -87.180000000000007          0.0000000000000000     
  -87.165000000000006          0.0000000000000000     
  -87.150000000000006          0.0000000000000000     
  -87.135000000000005          0.0000000000000000     
  -87.120000000000005          0.0000000000000000     
  -87.105000000000004          0.0000000000000000     
  -87.090000000000003          0.0000000000000000     
  -87.075000000000003          0.0000000000000000     
  -87.060000000000002          0.0000000000000000     
  -87.045000000000002          0.0000000000000000     
  -87.030000000000001          0.0000000000000000     
  -87.015000000000001          0.0000000000000000     
  -87.000000000000000          0.0000000000000000     
  -86.984999999999999          0.0000000000000000     
  -86.969999999999999          0.0000000000000000     
  -86.954999999999998          0.0000000000000000     
  -86.939999999999998          0.0000000000000000     
  -86.924999999999997          0.0000000000000000     
  -86.909999999999997          0.0000000000000000     
  -86.894999999999996          0.0000000000000000     
  -86.879999999999995          0.0000000000000000     
  -86.864999999999995          0.0000000000000000     
  -86.849999999999994          0.0000000000000000     
  -86.834999999999994          0.0000000000000000     
  -86.819999999999993          0.0000000000000000     
  -86.805000000000007          0.0000000000000000     
  -86.790000000000006          0.0000000000000000     
  -86.775000000000006          0.0000000000000000     
  -86.760000000000005          0.0000000000000000     
  -86.745000000000005          0.0000000000000000     
  -86.730000000000004          0.0000000000000000     
  -86.715000000000003          0.0000000000000000     
  -86.700000000000003          0.0000000000000000     
  -86.685000000000002          0.0000000000000000     
  -86.670000000000002          0.0000000000000000     
  -86.655000000000001          0.0000000000000000     
  -86.640000000000001          0.0000000000000000     
  -86.625000000000000          0.0000000000000000     
  -86.609999999999999          0.0000000000000000     
  -86.594999999999999          0.0000000000000000     
  -86.579999999999998          0.0000000000000000     
  -86.564999999999998          0.0000000000000000     
  -86.549999999999997          0.0000000000000000     
  -86.534999999999997          0.0000000000000000     
  -86.519999999999996          0.0000000000000000     
  -86.504999999999995          0.0000000000000000     
  -86.489999999999995          0.0000000000000000     
  -86.474999999999994          0.0000000000000000     
  -86.459999999999994          0.0000000000000000     
  -86.444999999999993          0.0000000000000000     
  -86.430000000000007          0.0000000000000000     
  -86.415000000000006          0.0000000000000000     
  -86.400000000000006          0.0000000000000000     
  -86.385000000000005          0.0000000000000000     
  -86.370000000000005          0.0000000000000000     
  -86.355000000000004          0.0000000000000000     
  -86.340000000000003          0.0000000000000000     
  -86.325000000000003          0.0000000000000000     
  -86.310000000000002          0.0000000000000000     
  -86.295000000000002          0.0000000000000000     
  -86.280000000000001          0.0000000000000000     
  -86.265000000000001          0.0000000000000000     
  -86.250000000000000          0.0000000000000000     
  -86.234999999999999          0.0000000000000000     
  -86.219999999999999          0.0000000000000000     
  -86.204999999999998          0.0000000000000000     
  -86.189999999999998          0.0000000000000000     
  -86.174999999999997          0.0000000000000000     
  -86.159999999999997          0.0000000000000000     
  -86.144999999999996          0.0000000000000000     
  -86.129999999999995          0.0000000000000000     
  -86.114999999999995          0.0000000000000000     
  -86.099999999999994          0.0000000000000000     
  -86.084999999999994          0.0000000000000000     
  -86.069999999999993          0.0000000000000000     
  -86.055000000000007          0.0000000000000000     
  -86.040000000000006          0.0000000000000000     
  -86.025000000000006          0.0000000000000000     
  -86.010000000000005          0.0000000000000000     
  -85.995000000000005          0.0000000000000000     
  -85.980000000000004          0.0000000000000000     
  -85.965000000000003          0.0000000000000000     
  -85.950000000000003          0.0000000000000000     
  -85.935000000000002          0.0000000000000000     
  -85.920000000000002          0.0000000000000000     
  -85.905000000000001          0.0000000000000000     
  -85.890000000000001          0.0000000000000000     
  -85.875000000000000          0.0000000000000000     
  -85.859999999999999          0.0000000000000000     
  -85.844999999999999          0.0000000000000000     
  -85.829999999999998          0.0000000000000000     
  -85.814999999999998          0.0000000000000000     
  -85.799999999999997          0.0000000000000000     
  -85.784999999999997          0.0000000000000000     
  -85.769999999999996          0.0000000000000000     
  -85.754999999999995          0.0000000000000000     
  -85.739999999999995          0.0000000000000000     
  -85.724999999999994         -1.2690845529173063E-038
  -85.709999999999994         -2.7686602824406157E-038
  -85.694999999999993         -4.4987689472641653E-038
  -85.680000000000007         -6.4559513019989227E-038
  -85.665000000000006         -8.6332260776956217E-038
  -85.650000000000006         -1.1018922139704594E-037
  -85.635000000000005         -1.3594630910359697E-037
  -85.620000000000005         -1.6333689603520529E-037
  -85.605000000000004         -1.9146653898728624E-037
  -85.590000000000003         -2.1959618193936719E-037
  -85.575000000000003         -2.4772582489144814E-037
  -85.560000000000002         -2.7585546784352909E-037
  -85.545000000000002         -3.0398511079561004E-037
  -85.530000000000001         -3.3032828878226799E-037
  -85.515000000000001         -3.5249873625379808E-037
  -85.500000000000000         -3.6926113574637783E-037
  -85.484999999999999         -3.6926113574637783E-037
  -85.469999999999999         -3.6926113574637783E-037
  -85.454999999999998         -3.6926113574637783E-037
  -85.439999999999998         -3.5134563577347447E-037
  -85.424999999999997         -3.2155687786040837E-037
  -85.409999999999997         -2.7871160558390364E-037
  -85.394999999999996         -2.2169550640512920E-037
  -85.379999999999995         -1.4946502775250849E-037
  -85.364999999999995         -6.1053553945350251E-038
  -85.349999999999994          4.4420286908854962E-038
  -85.334999999999994          1.6771426096767544E-037
  -85.319999999999993          3.0942248514882176E-037
  -85.305000000000007          4.6996581982787539E-037
  -85.290000000000006          6.4899391796797968E-037
  -85.275000000000006          8.4616266550784733E-037
  -85.260000000000005          1.0617401252385098E-036
  -85.245000000000005          1.2958203747336680E-036
  -85.230000000000004          1.5463626750137565E-036
  -85.215000000000003          1.8096625758792615E-036
  -85.200000000000003          2.0828301290604613E-036
  -85.185000000000002          2.3632221941835587E-036
  -85.170000000000002          2.6408548896330339E-036
  -85.155000000000001          2.9041669874003724E-036
  -85.140000000000001          3.1349664496685271E-036
  -85.125000000000000          3.3543962470334342E-036
  -85.109999999999999          3.5324878742254118E-036
  -85.094999999999999          3.6722051783899963E-036
  -85.079999999999998          3.7655283378392656E-036
  -85.064999999999998          3.8032723680277931E-036
  -85.049999999999997          3.8296381237353083E-036
  -85.034999999999997          3.8176256103589548E-036
  -85.019999999999996          3.7745196068849839E-036
  -85.004999999999995          3.6905740712836289E-036
  -84.989999999999995          3.5571062443790771E-036
  -84.974999999999994          3.3683900394929150E-036
  -84.959999999999994          3.1343896079582847E-036
  -84.944999999999993          2.8352713524643151E-036
  -84.930000000000007          2.4703929626365104E-036
  -84.915000000000006          2.0402577400417053E-036
  -84.900000000000006          1.5466509165026742E-036
  -84.885000000000005          9.8477982706367197E-037
  -84.870000000000005          1.2887718434581142E-037
  -84.855000000000004         -1.0206177326083109E-036
  -84.840000000000003         -2.4832456273097467E-036
  -84.825000000000003         -4.2621234023275000E-036
  -84.810000000000002         -6.4020109968974026E-036
  -84.795000000000002         -8.8981844433196244E-036
  -84.780000000000001         -1.1731447970502704E-035
  -84.765000000000001         -1.4852223324887973E-035
  -84.750000000000000         -1.7928138474329692E-035
  -84.734999999999999         -2.0856539988208381E-035
  -84.719999999999999         -2.3675162210937585E-035
  -84.704999999999998         -2.6330175192472445E-035
  -84.689999999999998         -2.8773128533941483E-035
  -84.674999999999997         -3.0952459474111243E-035
  -84.659999999999997         -3.2758404506058140E-035
  -84.644999999999996         -3.4130102524562721E-035
  -84.629999999999995         -3.5001475020280056E-035
  -84.614999999999995         -3.5237328663428562E-035
  -84.599999999999994         -3.4815333079145572E-035
  -84.584999999999994         -3.3720562129446159E-035
  -84.569999999999993         -3.1943651463581462E-035
  -84.555000000000007         -2.9453666868642512E-035
  -84.540000000000006         -2.6309652828940389E-035
  -84.525000000000006         -2.2446109111770031E-035
  -84.510000000000005         -1.7760574567082044E-035
  -84.495000000000005         -1.2158920681173741E-035
  -84.480000000000004         -5.5541903598881170E-036
  -84.465000000000003          2.0758888363537853E-036
  -84.450000000000003          1.0748432927514615E-035
  -84.435000000000002          2.0449486326136223E-035
  -84.420000000000002          3.1157505178157998E-035
  -84.405000000000001          4.2953685694015066E-035
  -84.390000000000001          5.5853166381277221E-035
  -84.375000000000000          6.9880797351232964E-035
  -84.359999999999999          8.4971160162166000E-035
  -84.344999999999999          1.0105300194849475E-034
  -84.329999999999998          1.1801789942756768E-034
  -84.314999999999998          1.3573778799999248E-034
  -84.299999999999997          1.5405580115889428E-034
  -84.284999999999997          1.7272417821507583E-034
  -84.269999999999996          1.9145462458722317E-034
  -84.254999999999995          2.0988646784361279E-034
  -84.239999999999995          2.2763211627270991E-034
  -84.224999999999994          2.4422959141109174E-034
  -84.209999999999994          2.5920605524791483E-034
  -84.194999999999993          2.7197511518133636E-034
  -84.180000000000007          2.8196302894910929E-034
  -84.165000000000006          2.8852866999368063E-034
  -84.150000000000006          2.9099514183174388E-034
  -84.135000000000005          2.8865719377055374E-034
  -84.120000000000005          2.8079809568034517E-034
  -84.105000000000004          2.6667951313088195E-034
  -84.090000000000003          2.4557886147951898E-034
  -84.075000000000003          2.1668314403764360E-034
  -84.060000000000002          1.7942249859272143E-034
  -84.045000000000002          1.3317174352521993E-034
  -84.030000000000001          7.7308010322166032E-035
  -84.015000000000001          1.1345443291135882E-035
  -84.000000000000000         -6.5129768313558426E-035
  -83.984999999999999         -1.5239399193816735E-034
  -83.969999999999999         -2.5060779620800462E-034
  -83.954999999999998         -3.5974473250017675E-034
  -83.939999999999998         -4.7956147118817610E-034
  -83.924999999999997         -6.0957835547556950E-034
  -83.909999999999997         -7.4903905117487377E-034
  -83.894999999999996         -8.9688373074267761E-034
  -83.879999999999995         -1.0517104794123812E-033
  -83.864999999999995         -1.2117293315283692E-033
  -83.849999999999994         -1.3747454187324655E-033
  -83.834999999999994         -1.5381356437479094E-033
  -83.819999999999993         -1.6988152522587541E-033
  -83.805000000000007         -1.8532359043644471E-033
  -83.790000000000006         -1.9973731849523528E-033
  -83.775000000000006         -2.1267394606672149E-033
  -83.760000000000005         -2.2363851656081023E-033
  -83.745000000000005         -2.3209472904703806E-033
  -83.730000000000004         -2.3746908921899756E-033
  -83.715000000000003         -2.3915737461326684E-033
  -83.700000000000003         -2.3653291817116300E-033
  -83.685000000000002         -2.2895669177622027E-033
  -83.670000000000002         -2.1578939180548442E-033
  -83.655000000000001         -1.9640548996042490E-033
  -83.640000000000001         -1.7020906570647250E-033
  -83.625000000000000         -1.3665168664412133E-033
  -83.609999999999999         -9.5251675596022711E-034
  -83.594999999999999         -4.5615531236464080E-034
  -83.579999999999998          1.2540911862372533E-034
  -83.564999999999998          7.9368625516452357E-034
  -83.549999999999997          1.5486170125954133E-033
  -83.534999999999997          2.3883372795770685E-033
  -83.519999999999996          3.3089431291678129E-033
  -83.504999999999995          4.3042665221036914E-033
  -83.489999999999995          5.3656644524992906E-033
  -83.474999999999994          6.4818316034355773E-033
  -83.459999999999994          7.6386444102874216E-033
  -83.444999999999993          8.8190295522930991E-033
  -83.430000000000007          1.0002892688209272E-032
  -83.415000000000006          1.1167090538320157E-032
  -83.400000000000006          1.2285458802428359E-032
  -83.385000000000005          1.3328909872822779E-032
  -83.370000000000005          1.4265606954379334E-032
  -83.355000000000004          1.5061209449006690E-032
  -83.340000000000003          1.5679209440904184E-032
  -83.325000000000003          1.6081350466424304E-032
  -83.310000000000002          1.6228150609058807E-032
  -83.295000000000002          1.6079507879029390E-032
  -83.280000000000001          1.5595405509898186E-032
  -83.265000000000001          1.4736709825358382E-032
  -83.250000000000000          1.3466056268101153E-032
  -83.234999999999999          1.1748822856074937E-032
  -83.219999999999999          9.5541712296698802E-033
  -83.204999999999998          6.8561619019831806E-033
  -83.189999999999998          3.6349165288584644E-033
  -83.174999999999997         -1.2218577306463898E-034
  -83.159999999999997         -4.4192662364705897E-033
  -83.144999999999996         -9.2507430769440309E-033
  -83.129999999999995         -1.4600118851160771E-032
  -83.114999999999995         -2.0438836025893536E-032
  -83.099999999999994         -2.6725175571947674E-032
  -83.084999999999994         -3.3403270650932418E-032
  -83.069999999999993         -4.0402252177804629E-032
  -83.055000000000007         -4.7635533238682739E-032
  -83.040000000000006         -5.5000305097643830E-032
  -83.025000000000006         -6.2377213935777161E-032
  -83.010000000000005         -6.9630331463825397E-032
  -82.995000000000005         -7.6607378266111265E-032
  -82.980000000000004         -8.3140246895523669E-032
  -82.965000000000003         -8.9045907004167825E-032
  -82.950000000000003         -9.4127621980018361E-032
  -82.935000000000002         -9.8176618148897484E-032
  -82.920000000000002         -1.0097414188958892E-031
  -82.905000000000001         -1.0229390466208763E-031
  -82.890000000000001         -1.0190508639566614E-031
  -82.875000000000000         -9.9575715035133187E-032
  -82.859999999999999         -9.5076580937021931E-032
  -82.844999999999999         -8.8185562688800992E-032
  -82.829999999999998         -7.8692493655486855E-032
  -82.814999999999998         -6.6404422316863793E-032
  -82.799999999999997         -5.1151360434859398E-032
  -82.784999999999997         -3.2792436766471124E-032
  -82.769999999999996         -1.1222364486747729E-032
  -82.754999999999995          1.3621728454348488E-032
  -82.739999999999995          4.1753236080261176E-032
  -82.724999999999994          7.3128861260629706E-032
  -82.709999999999994          1.0764134601341330E-031
  -82.694999999999993          1.4511216801155257E-031
  -82.680000000000007          1.8528458165641267E-031
  -82.665000000000006          2.2781687074020956E-031
  -82.650000000000006          2.7227611244847891E-031
  -82.635000000000005          3.1813271131134474E-031
  -82.620000000000005          3.6475587355026880E-031
  -82.605000000000004          4.1141004533016755E-031
  -82.590000000000003          4.5725305547833787E-031
  -82.575000000000003          5.0133569230649077E-031
  -82.560000000000002          5.4260311420397236E-031
  -82.545000000000002          5.7989886982844367E-031
  -82.530000000000001          6.1197105769627896E-031
  -82.515000000000001          6.3748154205827618E-031
  -82.500000000000000          6.5501794294203533E-031
  -82.484999999999999          6.6310934075648546E-031
  -82.469999999999999          6.6024508420149784E-031
  -82.454999999999998          6.4489764187806593E-031
  -82.439999999999998          6.1554912144085991E-031
  -82.424999999999997          5.7072202053044424E-031
  -82.409999999999997          5.0901331610945146E-031
  -82.394999999999996          4.2913302067728921E-031
  -82.379999999999995          3.2994602986902945E-031
  -82.364999999999995          2.1051740249780215E-031
  -82.349999999999994          7.0160379499026429E-032
  -82.334999999999994         -9.1513058057560658E-032
  -82.319999999999993         -2.7454016158793667E-031
  -82.305000000000007         -4.7855465880732888E-031
  -82.290000000000006         -7.0273417386790202E-031
  -82.275000000000006         -9.4574924616876310E-031
  -82.260000000000005         -1.2057148999887075E-030
  -82.245000000000005         -1.4801468455667075E-030
  -82.230000000000004         -1.7659229699069790E-030
  -82.215000000000003         -2.0592531971038268E-030
  -82.200000000000003         -2.3556577652060411E-030
  -82.185000000000002         -2.6499569759061588E-030
  -82.170000000000002         -2.9362741097664527E-030
  -82.155000000000001         -3.2080538579703534E-030
  -82.140000000000001         -3.4580956123224638E-030
  -82.125000000000000         -3.6786070677909571E-030
  -82.109999999999999         -3.8612762568013947E-030
  -82.094999999999999         -3.9973661530220810E-030
  -82.079999999999998         -4.0778293996127030E-030
  -82.064999999999998         -4.0934456069645069E-030
  -82.049999999999997         -4.0349842291975477E-030
  -82.034999999999997         -3.8933873770421292E-030
  -82.019999999999996         -3.6599736955790105E-030
  -82.004999999999995         -3.3266651876293410E-030
  -81.989999999999995         -2.8862305881050540E-030
  -81.974999999999994         -2.3325430323705678E-030
  -81.960000000000008         -1.6608516424575990E-030
  -81.944999999999993         -8.6805969604834133E-031
  -81.930000000000007          4.6993272512752212E-032
  -81.915000000000006          1.0832527448759742E-030
  -81.900000000000006          2.2371784670725379E-030
  -81.885000000000005          3.5024898021733586E-030
  -81.870000000000005          4.8699327884510230E-030
  -81.855000000000004          6.3270778426794842E-030
  -81.840000000000003          7.8581560372808794E-030