  -90.000000000000000          0.0000000000000000     
  -89.984999999999999          0.0000000000000000     
  -89.969999999999999          0.0000000000000000     
  -89.954999999999998          0.0000000000000000     
  -89.939999999999998          0.0000000000000000     
  -89.924999999999997          0.0000000000000000     
  -89.909999999999997          0.0000000000000000     
  -89.894999999999996          0.0000000000000000     
  -89.879999999999995          2.7295458666560941E-034
  -89.864999999999995          4.5538794414229425E-033
  -89.849999999999994          4.0133307886544121E-032
  -89.834999999999994          2.4833789880048053E-031
  -89.819999999999993          1.2103987277592200E-030
  -89.805000000000007          4.9440780820443935E-030
  -89.790000000000006          1.7588823041749323E-029
  -89.775000000000006          5.5936757453031488E-029
  -89.760000000000005          1.6202249176434625E-028
  -89.745000000000005          4.3343920066909717E-028
  -89.730000000000004          1.0824914586231952E-027
  -89.715000000000003          2.5453735331553079E-027
  -89.700000000000003          5.6738577940848281E-027
  -89.685000000000002          1.2056846845552925E-026
  -89.670000000000002          2.4537416767798509E-026
  -89.655000000000001          4.8011646250585398E-026
  -89.640000000000001          9.0616279619414609E-026
  -89.625000000000000          1.6542877870861599E-025
  -89.609999999999999          2.9280944010374174E-025
  -89.594999999999999          5.0350053073385235E-025
  -89.579999999999998          8.4255038399990126E-025
  -89.564999999999998          1.3740312193962640E-024
  -89.549999999999997          2.1863522562928698E-024
  -89.534999999999997          3.3977028048774199E-024
  -89.519999999999996          5.1607745847492673E-024
  -89.504999999999995          7.6653661491980030E-024
  -89.489999999999995          1.1136764339841170E-023
  -89.474999999999994          1.5826835877636827E-023
  -89.459999999999994          2.1993650296840787E-023
  -89.444999999999993          2.9864030351253058E-023
  -89.430000000000007          3.9571806293444385E-023
  -89.415000000000006          5.1062748669346253E-023
  -89.400000000000006          6.3955175018576529E-023
  -89.385000000000005          7.7343261607218893E-023
  -89.370000000000005          8.9528063947247817E-023
  -89.355000000000004          9.7659661090927732E-023
  -89.340000000000003          9.7272557578404919E-023
  -89.325000000000003          8.1695981512062216E-023
  -89.310000000000002          4.1321383029810616E-023
  -89.295000000000002         -3.7288874388170985E-023
  -89.280000000000001         -1.7246381294706813E-022
  -89.265000000000001         -3.8866346287478235E-022
  -89.250000000000000         -7.1789391795827297E-022
  -89.234999999999999         -1.2012847575868552E-021
  -89.219999999999999         -1.8908015943576751E-021
  -89.204999999999998         -2.8510486275550273E-021
  -89.189999999999998         -4.1610945090471427E-021
  -89.174999999999997         -5.9162340400815031E-021
  -89.159999999999997         -8.2295641765339530E-021
  -89.144999999999996         -1.1233230656330890E-020
  -89.129999999999995         -1.5079166524717845E-020
  -89.114999999999995         -1.9939120810931109E-020
  -89.099999999999994         -2.6003718256485807E-020
  -89.084999999999994         -3.3480313007668523E-020
  -89.069999999999993         -4.2589339004201837E-020
  -89.055000000000007         -5.3558836370034692E-020
  -89.040000000000006         -6.6616893696730050E-020
  -89.025000000000006         -8.1981670177325970E-020
  -89.010000000000005         -9.9848777870819904E-020
  -88.995000000000005         -1.2037574298511492E-019
  -88.980000000000004         -1.4366347509259395E-019
  -88.965000000000003         -1.6973457948843441E-019
  -88.950000000000003         -1.9850867748155090E-019
  -88.935000000000002         -2.2977487678983358E-019
  -88.920000000000002         -2.6316164407127546E-019
  -88.905000000000001         -2.9810482922341828E-019
  -88.890000000000001         -3.3381455230945633E-019
  -88.875000000000000         -3.6924166396933682E-019
  -88.859999999999999         -4.0304551122526441E-019
  -88.844999999999999         -4.3356387463631380E-019
  -88.829999999999998         -4.5878729985004642E-019
  -88.814999999999998         -4.7633919356902083E-019
  -88.799999999999997         -4.8346411377524633E-019
  -88.784999999999997         -4.7702632216411097E-019
  -88.769999999999996         -4.5352069258870957E-019
  -88.754999999999995         -4.0909848290580362E-019
  -88.739999999999995         -3.3960975383160870E-019
  -88.724999999999994         -2.4066458030712348E-019
  -88.709999999999994         -1.0771471619657367E-019
  -88.694999999999993          6.3843350640491213E-020
  -88.680000000000007          2.7854317095927558E-019
  -88.665000000000006          5.4070097965842965E-019
  -88.650000000000006          8.5424735806304642E-019
  -88.635000000000005          1.2225390309482602E-018
  -88.620000000000005          1.6481546821749168E-018
  -88.605000000000004          2.1326767599536185E-018
  -88.590000000000003          2.6764667422120509E-018
  -88.575000000000003          3.2784364728544004E-018
  -88.560000000000002          3.9358258569717309E-018
  -88.545000000000002          4.6439929637615478E-018
  -88.530000000000001          5.3962243953723707E-018
  -88.515000000000001          6.1835762614309701E-018
  -88.500000000000000          6.9947575465759971E-018
  -88.484999999999999          7.8160569049737727E-018
  -88.469999999999999          8.6313352156927749E-018
  -88.454999999999998          9.4220793494434543E-018
  -88.439999999999998          1.0167529554392567E-017
  -88.424999999999997          1.0844892041580603E-017
  -88.409999999999997          1.1429626843774951E-017
  -88.394999999999996          1.1895825837009838E-017
  -88.379999999999995          1.2216667689923231E-017
  -88.364999999999995          1.2364957185516224E-017
  -88.349999999999994          1.2313727408638978E-017
  -88.334999999999994          1.2036907280745044E-017
  -88.319999999999993          1.1510027144953880E-017
  -88.305000000000007          1.0710953302434792E-017
  -88.290000000000006          9.6206275118745575E-018
  -88.275000000000006          8.2237882909715735E-018
  -88.260000000000005          6.5096496181284548E-018
  -88.245000000000005          4.4725039471185854E-018
  -88.230000000000004          2.1122373338125863E-018
  -88.215000000000003         -5.6528566634290647E-019
  -88.200000000000003         -3.5479803064900112E-018
  -88.185000000000002         -6.8174691666584255E-018
  -88.170000000000002         -1.0349194133340851E-017
  -88.155000000000001         -1.4112728608475443E-017
  -88.140000000000001         -1.8072288345172852E-017
  -88.125000000000000         -2.2187445718175160E-017
  -88.109999999999999         -2.6414027628410812E-017
  -88.094999999999999         -3.0705195800874603E-017
  -88.079999999999998         -3.5012666048850590E-017
  -88.064999999999998         -3.9288021836724819E-017
  -88.049999999999997         -4.3484117178304216E-017
  -88.034999999999997         -4.7556459682800779E-017
  -88.019999999999996         -5.1464563822313714E-017
  -88.004999999999995         -5.5173185085303361E-017
  -87.989999999999995         -5.8653385385220165E-017
  -87.974999999999994         -6.1883320536447825E-017
  -87.959999999999994         -6.4848769649895329E-017
  -87.944999999999993         -6.7543274099339865E-017
  -87.930000000000007         -6.9967846353851196E-017
  -87.915000000000006         -7.2130261911187320E-017
  -87.900000000000006         -7.4043835070487893E-017
  -87.885000000000005         -7.5725757953604215E-017
  -87.870000000000005         -7.7194963070396401E-017
  -87.855000000000004         -7.8469522662887508E-017
  -87.840000000000003         -7.9563737029507355E-017
  -87.825000000000003         -8.0484878742201506E-017
  -87.810000000000002         -8.1229811132087161E-017
  -87.795000000000002         -8.1781540600660030E-017
  -87.780000000000001         -8.2105841722895120E-017
  -87.765000000000001         -8.2148186752812935E-017
  -87.750000000000000         -8.1831092028074407E-017
  -87.734999999999999         -8.1052073179506667E-017
  -87.719999999999999         -7.9682434138686264E-017
  -87.704999999999998         -7.7566995822698251E-017
  -87.689999999999998         -7.4525009341532439E-017
  -87.674999999999997         -7.0352286815341341E-017
  -87.659999999999997         -6.4824715237682287E-017
  -87.644999999999996         -5.7703252646417255E-017
  -87.629999999999995         -4.8740327192931573E-017
  -87.614999999999995         -3.7687662270728675E-017
  -87.599999999999994         -2.4305441676617187E-017
  -87.584999999999994         -8.3726253801300774E-018
  -87.569999999999993          1.0301798338602787E-017
  -87.555000000000007          3.1866901488033876E-017
  -87.540000000000006          5.6417615451162837E-017
  -87.525000000000006          8.3982615271104434E-017
  -87.510000000000005          1.1451276641947302E-016
  -87.495000000000005          1.4787060471335207E-016
  -87.480000000000004          1.8382142261701335E-016
  -87.465000000000003          2.2202632754221634E-016
  -87.450000000000003          2.6203798021369234E-016
  -87.435000000000002          3.0329941676395227E-016
  -87.420000000000002          3.4514625895988333E-016
  -87.405000000000001          3.8681286842650643E-016
  -87.390000000000001          4.2744263015635146E-016
  -87.375000000000000          4.6610248441845861E-016
  -87.359999999999999          5.0180169383211596E-016
  -87.344999999999999          5.3351497795423139E-016
  -87.329999999999998          5.6020932716606907E-016
  -87.314999999999998          5.8087438998023224E-016
  -87.299999999999997          5.9455556026516529E-016
  -87.284999999999997          6.0038928793114247E-016
  -87.269999999999996          5.9763923664920377E-016
  -87.254999999999995          5.8573275920744609E-016
  -87.239999999999995          5.6429589055965665E-016
  -87.224999999999994          5.3318601153334150E-016
  -87.209999999999994          4.9252043619169537E-016
  -87.194999999999993          4.4270020816546357E-016
  -87.180000000000007          3.8442682955365027E-016
  -87.165000000000006          3.1871147240681989E-016
  -87.150000000000006          2.4687508460621550E-016
  -87.135000000000005          1.7053854310574703E-016
  -87.120000000000005          9.1602245731918302E-017
  -87.105000000000004          1.2214426030463212E-017
  -87.090000000000003         -6.5271763345375346E-017
  -87.075000000000003         -1.3835224402214928E-016
  -87.060000000000002         -2.0443645754772931E-016
  -87.045000000000002         -2.6092129962163556E-016
  -87.030000000000001         -3.0527308294039360E-016
  -87.015000000000001         -3.3511588008695511E-016
  -87.000000000000000         -3.4832385012194863E-016
  -86.984999999999999         -3.4311512689192672E-016
  -86.969999999999999         -3.1814459560686994E-016
  -86.954999999999998         -2.7259227543427694E-016
  -86.939999999999998         -2.0624433025963541E-016
  -86.924999999999997         -1.1956330624659519E-016
  -86.909999999999997         -1.3744622482541382E-017
  -86.894999999999996          1.0924393693742055E-016
  -86.879999999999995          2.4664244171329619E-016
  -86.864999999999995          3.9490113310027854E-016
  -86.849999999999994          5.4970664801570778E-016
  -86.834999999999994          7.0603372527198137E-016
  -86.819999999999993          8.5822299364135849E-016
  -86.805000000000007          1.0000843892848639E-015
  -86.790000000000006          1.1250259841696095E-015
  -86.775000000000006          1.2262055520267934E-015
  -86.760000000000005          1.2967030454355847E-015
  -86.745000000000005          1.3297102253241903E-015
  -86.730000000000004          1.3187328900860114E-015
  -86.715000000000003          1.2578011515087997E-015
  -86.700000000000003          1.1416816165279444E-015
  -86.685000000000002          9.6608596908973401E-016
  -86.670000000000002          7.2786896410277635E-016
  -86.655000000000001          4.2520948073047470E-016
  -86.640000000000001          5.7767752881861690E-017
  -86.625000000000000         -3.7318704645072052E-016
  -86.609999999999999         -8.6468495505640235E-016
  -86.594999999999999         -1.4120043465893923E-015
  -86.579999999999998         -2.0086664248548198E-015
  -86.564999999999998         -2.6464767284231508E-015
  -86.549999999999997         -3.3156183571939448E-015
  -86.534999999999997         -4.0047937974749606E-015
  -86.519999999999996         -4.7014182572523676E-015
  -86.504999999999995         -5.3918572589324500E-015
  -86.489999999999995         -6.0617065837306749E-015
  -86.474999999999994         -6.6961109678180964E-015
  -86.459999999999994         -7.2801075741814672E-015
  -86.444999999999993         -7.7989931814058736E-015
  -86.430000000000007         -8.2386998427868424E-015
  -86.415000000000006         -8.5861696984095015E-015
  -86.400000000000006         -8.8297162347005832E-015
  -86.385000000000005         -8.9593664857391155E-015
  -86.370000000000005         -8.9671634240185913E-015
  -86.355000000000004         -8.8474243054958816E-015
  -86.340000000000003         -8.5969439574985762E-015
  -86.325000000000003         -8.2151294569635970E-015
  -86.310000000000002         -7.7040653519741369E-015
  -86.295000000000002         -7.0685043443972397E-015
  -86.280000000000001         -6.3157736927431287E-015
  -86.265000000000001         -5.4556045350263351E-015
  -86.250000000000000         -4.4998820140462574E-015
  -86.234999999999999         -3.4623267929989945E-015
  -86.219999999999999         -2.3581096554863446E-015
  -86.204999999999998         -1.2034132718447194E-015
  -86.189999999999998         -1.4955850645793593E-017
  -86.174999999999997          1.1905111601130235E-015
  -86.159999999999997          2.3967123350245121E-015
  -86.144999999999996          3.5883479313750157E-015
  -86.129999999999995          4.7515613371804013E-015
  -86.114999999999995          5.8743619540393369E-015
  -86.099999999999994          6.9469779863558234E-015
  -86.084999999999994          7.9621266448493683E-015
  -86.069999999999993          8.9151886353421202E-015
  -86.055000000000007          9.8042674510651767E-015
  -86.040000000000006          1.0630135586066434E-014
  -86.025000000000006          1.1396052423126926E-014
  -86.010000000000005          1.2107464384097499E-014
  -85.995000000000005          1.2771578025293391E-014
  -85.980000000000004          1.3396833183001045E-014
  -85.965000000000003          1.3992272780965348E-014
  -85.950000000000003          1.4566840640076358E-014
  -85.935000000000002          1.5128628466079194E-014
  -85.920000000000002          1.5684095732229619E-014
  -85.905000000000001          1.6237292950081403E-014
  -85.890000000000001          1.6789131527085790E-014
  -85.875000000000000          1.7336716304629067E-014
  -85.859999999999999          1.7872801762880419E-014
  -85.844999999999999          1.8385373586515992E-014
  -85.829999999999998          1.8857409801427763E-014
  -85.814999999999998          1.9266850281537441E-014
  -85.799999999999997          1.9586772931649496E-014
  -85.784999999999997          1.9785825674254257E-014
  -85.769999999999996          1.9828892217424454E-014
  -85.754999999999995          1.9678010238530046E-014
  -85.739999999999995          1.9293541983771319E-014
  -85.724999999999994          1.8635549849685233E-014
  -85.709999999999994          1.7665371864427314E-014
  -85.694999999999993          1.6347364881577099E-014
  -85.680000000000007          1.4650744335699580E-014
  -85.665000000000006          1.2551487525377675E-014
  -85.650000000000006          1.0034238590310614E-014
  -85.635000000000005          7.0941262440187350E-015
  -85.620000000000005          3.7384514869908975E-015
  -85.605000000000004         -1.1848323335972755E-017
  -85.590000000000003         -4.1210223879477748E-015
  -85.575000000000003         -8.5376889206404544E-015
  -85.560000000000002         -1.3194439742452314E-014
  -85.545000000000002         -1.8007923846758214E-014
  -85.530000000000001         -2.2879455965972399E-014
  -85.515000000000001         -2.7696181665367442E-014
  -85.500000000000000         -3.2332816301714959E-014
  -85.484999999999999         -3.6653961658396350E-014
  -85.469999999999999         -4.0516977387093991E-014
  -85.454999999999998         -4.3775380998041513E-014
  -85.439999999999998         -4.6282703553999702E-014
  -85.424999999999997         -4.7896745163783505E-014
  -85.409999999999997         -4.8484108302595738E-014
  -85.394999999999996         -4.7924947972795284E-014
  -85.379999999999995         -4.6117748969719610E-014
  -85.364999999999995         -4.2984048937398656E-014
  -85.349999999999994         -3.8472934419438859E-014
  -85.334999999999994         -3.2565137110356079E-014
  -85.319999999999993         -2.5276648992194478E-014
  -85.305000000000007         -1.6661615799074339E-014
  -85.290000000000006         -6.8144452821977848E-015
  -85.275000000000006          4.1290302374311170E-015
  -85.260000000000005          1.5991446719338526E-014
  -85.245000000000005          2.8554927384216375E-014
  -85.230000000000004          4.1563296858046495E-014
  -85.215000000000003          5.4725511232020518E-014
  -85.200000000000003          6.7720311238035624E-014
  -85.185000000000002          8.0202039670976277E-014
  -85.170000000000002          9.1807570118222770E-014
  -85.155000000000001          1.0216419453045605E-013
  -85.140000000000001          1.1089839170672772E-013
  -85.125000000000000          1.1764519209072483E-013
  -85.109999999999999          1.2205808466812101E-013
  -85.094999999999999          1.2381899162656335E-013
  -85.079999999999998          1.2264831077829497E-013
  -85.064999999999998          1.1831460561707169E-013
  -85.049999999999997          1.1064364485377509E-013
  -85.034999999999997          9.9526628800396255E-014
  -85.019999999999996          8.4927223131629759E-014
  -85.004999999999995          6.6887196736170607E-014
  -84.989999999999995          4.5530433264752423E-014
  -84.974999999999994          2.1065114781085477E-014
  -84.959999999999994         -6.2160999377079262E-015
  -84.944999999999993         -3.5937971484345868E-014
  -84.930000000000007         -6.7646741344368905E-014
  -84.915000000000006         -1.0081636182346712E-013
  -84.900000000000006         -1.3485679315871496E-013
  -84.885000000000005         -1.6912434452030778E-013
  -84.870000000000005         -2.0293376625391685E-013
  -84.855000000000004         -2.3557192438058983E-013
  -84.840000000000003         -2.6631285067815758E-013
  -84.825000000000003         -2.9443361269053392E-013
  -84.810000000000002         -3.1923088846842751E-013
  -84.795000000000002         -3.4003770394037958E-013
  -84.780000000000001         -3.5623983147062277E-013
  -84.765000000000001         -3.6729164631585376E-013
  -84.750000000000000         -3.7273087177477904E-013
  -84.734999999999999         -3.7219164382429337E-013
  -84.719999999999999         -3.6541586813723659E-013
  -84.704999999999998         -3.5226227317053382E-013
  -84.689999999999998         -3.3271275274790457E-013
  -84.674999999999997         -3.0687616076746638E-013
  -84.659999999999997         -2.7498907014325558E-013
  -84.644999999999996         -2.3741338756044783E-013
  -84.629999999999995         -1.9463095956955001E-013
  -84.614999999999995         -1.4723542751757940E-013
  -84.599999999999994         -9.5920958621733415E-014
  -84.584999999999994         -4.1468615515202409E-014
  -84.569999999999993          1.5269566278172837E-014
  -84.555000000000007          7.3388337236673234E-014
  -84.540000000000006          1.3194838017344113E-013
  -84.525000000000006          1.8999636120040769E-013
  -84.510000000000005          2.4658533136386052E-013
  -84.495000000000005          3.0079492499210381E-013
  -84.480000000000004          3.5175074658555516E-013
  -84.465000000000003          3.9864259896577048E-013
  -84.450000000000003          4.4074084117572132E-013
  -84.435000000000002          4.7741048310803724E-013
  -84.420000000000002          5.0812262383792550E-013
  -84.405000000000001          5.3246290840011645E-013
  -84.390000000000001          5.5013703011488890E-013
  -84.375000000000000          5.6097249241660041E-013
  -84.359999999999999          5.6491741623129754E-013
  -84.344999999999999          5.6203587790737419E-013
  -84.329999999999998          5.5250042822058143E-013
  -84.314999999999998          5.3658162982306301E-013
  -84.299999999999997          5.1463531786782868E-013
  -84.284999999999997          4.8708823432996873E-013
  -84.269999999999996          4.5442198181450122E-013
  -84.254999999999995          4.1715657078840451E-013
  -84.239999999999995          3.7583369576210668E-013
  -84.224999999999994          3.3100079751754996E-013
  -84.209999999999994          2.8319615532831910E-013
  -84.194999999999993          2.3293595784873444E-013
  -84.180000000000007          1.8070359661739865E-013
  -84.165000000000006          1.2694188690660912E-013
  -84.150000000000006          7.2048446310597758E-014
  -84.135000000000005          1.6374461465559764E-014
  -84.120000000000005         -3.9772997856334438E-014
  -84.105000000000004         -9.6125154548393904E-014
  -84.090000000000003         -1.5244241687115828E-013
  -84.075000000000003         -2.0850230992696533E-013
  -84.060000000000002         -2.6408486942380849E-013
  -84.045000000000002         -3.1895615163791968E-013
  -84.030000000000001         -3.7285067611483869E-013
  -84.015000000000001         -4.2545334659818690E-013
  -84.000000000000000         -4.7638222576765199E-013
  -83.984999999999999         -5.2517257036199805E-013
  -83.969999999999999         -5.7126341417718107E-013
  -83.954999999999998         -6.1398759340636211E-013
  -83.939999999999998         -6.5256610878861032E-013
  -83.924999999999997         -6.8610731245727363E-013
  -83.909999999999997         -7.1361200369018940E-013
  -83.894999999999996         -7.3398459619206102E-013
  -83.879999999999995         -7.4605095322019532E-013
  -83.864999999999995         -7.4858240266262310E-013
  -83.849999999999994         -7.4032663680001498E-013
  -83.834999999999994         -7.2004408728856828E-013
  -83.819999999999993         -6.8655010062451671E-013
  -83.805000000000007         -6.3876139620722139E-013
  -83.790000000000006         -5.7574572279867064E-013
  -83.775000000000006         -4.9677352075699899E-013
  -83.760000000000005         -4.0137028900141813E-013
  -83.745000000000005         -2.8936727146378072E-013
  -83.730000000000004         -1.6094937882460414E-013
  -83.715000000000003         -1.6698217786791092E-014
  -83.700000000000003          1.4237172367686374E-013
  -83.685000000000002          3.1478525298542226E-013
  -83.670000000000002          4.9858901729482596E-013
  -83.655000000000001          6.9134552683342010E-013
  -83.640000000000001          8.9014001248069463E-013
  -83.625000000000000          1.0916016354722835E-012
  -83.609999999999999          1.2919384529200273E-012
  -83.594999999999999          1.4869880500534283E-012
  -83.579999999999998          1.6722816707781529E-012
  -83.564999999999998          1.8431233102245148E-012
  -83.549999999999997          1.9946808961501805E-012
  -83.534999999999997          2.1220898302476421E-012
  -83.519999999999996          2.2205646609679830E-012
  -83.504999999999995          2.2855194299620241E-012
  -83.489999999999995          2.3126912711279868E-012
  -83.474999999999994          2.2982666117443706E-012
  -83.459999999999994          2.2390049883580510E-012
  -83.444999999999993          2.1323576585019488E-012
  -83.430000000000007          1.9765788398379280E-012
  -83.415000000000006          1.7708239388736224E-012
  -83.400000000000006          1.5152332513701516E-012
  -83.385000000000005          1.2109974481533392E-012
  -83.370000000000005          8.6040186477245872E-013
  -83.355000000000004          4.6684807712346621E-013
  -83.340000000000003          3.4849591745364505E-014
  -83.325000000000003         -4.2999845763051769E-013
  -83.310000000000002         -9.2107658306028739E-013
  -83.295000000000002         -1.4308258354175929E-012
  -83.280000000000001         -1.9508585285404889E-012
  -83.265000000000001         -2.4720943608141921E-012
  -83.250000000000000         -2.9849189526337527E-012
  -83.234999999999999         -3.4793628481827321E-012
  -83.219999999999999         -3.9452972139253362E-012
  -83.204999999999998         -4.3726415717426637E-012
  -83.189999999999998         -4.7515802056863343E-012
  -83.174999999999997         -5.0727824718599379E-012
  -83.159999999999997         -5.3276185546513588E-012
  -83.144999999999996         -5.5083715366777142E-012
  -83.129999999999995         -5.6084347235807464E-012
  -83.114999999999995         -5.6224937899918004E-012
  -83.099999999999994         -5.5466829046446620E-012
  -83.084999999999994         -5.3787174367214696E-012
  -83.069999999999993         -5.1179937024525834E-012
  -83.055000000000007         -4.7656570530130171E-012
  -83.040000000000006         -4.3246313648215295E-012
  -83.025000000000006         -3.7996090648806380E-012
  -83.010000000000005         -3.1970066784875462E-012
  -82.995000000000005         -2.5248783099007799E-012
  -82.980000000000004         -1.7927922601329582E-012
  -82.965000000000003         -1.0116725165931761E-012
  -82.950000000000003         -1.9360777087432113E-013
  -82.935000000000002          6.4836802376663782E-013
  -82.920000000000002          1.5005188931660474E-012
  -82.905000000000001          2.3486683518175733E-012
  -82.890000000000001          3.1784735433915134E-012
  -82.875000000000000          3.9757060490974716E-012
  -82.859999999999999          4.7265320997358362E-012
  -82.844999999999999          5.4177860114856813E-012
  -82.829999999999998          6.0372319123092044E-012
  -82.814999999999998          6.5738044348340186E-012
  -82.799999999999997          7.0178259904685181E-012
  -82.784999999999997          7.3611941195372843E-012
  -82.769999999999996          7.5975354479895785E-012
  -82.754999999999995          7.7223184444252801E-012
  -82.739999999999995          7.7329349520982582E-012
  -82.724999999999994          7.6287292455345934E-012
  -82.709999999999994          7.4109945610856265E-012
  -82.694999999999993          7.0829271267558447E-012
  -82.680000000000007          6.6495376913056070E-012
  -82.665000000000006          6.1175309609695638E-012
  -82.650000000000006          5.4951512090672949E-012
  -82.635000000000005          4.7920014310809389E-012
  -82.620000000000005          4.0188382136041589E-012
  -82.605000000000004          3.1873525086628662E-012
  -82.590000000000003          2.3099373976098736E-012
  -82.575000000000003          1.3994532529343351E-012
  -82.560000000000002          4.6899371322281502E-013
  -82.545000000000002         -4.6833955984204589E-013
  -82.530000000000001         -1.3996500356286412E-012
  -82.515000000000001         -2.3124410372665771E-012
  -82.500000000000000         -3.1947875334809028E-012
  -82.484999999999999         -4.0354833190370254E-012
  -82.469999999999999         -4.8241588675168590E-012
  -82.454999999999998         -5.5513722958810963E-012
  -82.439999999999998         -6.2086685619078263E-012
  -82.424999999999997         -6.7886126407790126E-012
  -82.409999999999997         -7.2847934282083138E-012
  -82.394999999999996         -7.6918055258445861E-012
  -82.379999999999995         -8.0052119447171499E-012
  -82.364999999999995         -8.2214877267228204E-012
  -82.349999999999994         -8.3379587956233792E-012
  -82.334999999999994         -8.3527256292126317E-012
  -82.319999999999993         -8.2645990745477960E-012
  -82.305000000000007         -8.0730300916487252E-012
  -82.290000000000006         -7.7780559770701529E-012
  -82.275000000000006         -7.3802613326234834E-012
  -82.260000000000005         -6.8807511771629137E-012
  -82.245000000000005         -6.2811526813089102E-012
  -82.230000000000004         -5.5836355504490509E-012
  -82.215000000000003         -4.7909562601866629E-012
  -82.200000000000003         -3.9065261442372545E-012
  -82.185000000000002         -2.9344985642831833E-012
  -82.170000000000002         -1.8798766796696009E-012
  -82.155000000000001         -7.4863195070190569E-013
  -82.140000000000001          4.5216808812822973E-013
  -82.125000000000000          1.7142316212359621E-012
  -82.109999999999999          3.0279194949967003E-012
  -82.094999999999999          4.3821365806884227E-012
  -82.079999999999998          5.7642423820225552E-012
  -82.064999999999998          7.1599974213465423E-012
  -82.049999999999997          8.5535389535151829E-012
  -82.034999999999997          9.9274061193810326E-012
  -82.019999999999996          1.1262618442031691E-011
  -82.004999999999995          1.2538801594241811E-011
  -81.989999999999995          1.3734382554864144E-011
  -81.974999999999994          1.4826837674286608E-011
  -81.960000000000008          1.5793009261466651E-011
  -81.944999999999993          1.6609475947393371E-011
  -81.930000000000007          1.7252976824977395E-011
  -81.915000000000006          1.7700889365368511E-011
  -81.900000000000006          1.7931746365551504E-011
  -81.885000000000005          1.7925782386241096E-011
  -81.870000000000005          1.7665492332841204E-011
  -81.855000000000004          1.7136205648915492E-011
  -81.840000000000003          1.6326643162423160E-011