  -90.000000000000000          0.0000000000000000     
  -89.984999999999999          0.0000000000000000     
  -89.969999999999999          0.0000000000000000     
  -89.954999999999998          0.0000000000000000     
  -89.939999999999998          0.0000000000000000     
  -89.924999999999997          0.0000000000000000     
  -89.909999999999997          0.0000000000000000     
  -89.894999999999996          0.0000000000000000     
  -89.879999999999995          0.0000000000000000     
  -89.864999999999995          0.0000000000000000     
  -89.849999999999994          0.0000000000000000     
  -89.834999999999994          0.0000000000000000     
  -89.819999999999993          0.0000000000000000     
  -89.805000000000007          0.0000000000000000     
  -89.790000000000006          0.0000000000000000     
  -89.775000000000006          0.0000000000000000     
  -89.760000000000005          0.0000000000000000     
  -89.745000000000005          0.0000000000000000     
  -89.730000000000004          0.0000000000000000     
  -89.715000000000003          0.0000000000000000     
  -89.700000000000003          0.0000000000000000     
  -89.685000000000002          0.0000000000000000     
  -89.670000000000002          0.0000000000000000     
  -89.655000000000001          0.0000000000000000     
  -89.640000000000001          0.0000000000000000     
  -89.625000000000000          0.0000000000000000     
  -89.609999999999999          0.0000000000000000     
  -89.594999999999999          0.0000000000000000     
  -89.579999999999998          0.0000000000000000     
  -89.564999999999998          0.0000000000000000     
  -89.549999999999997          0.0000000000000000     
  -89.534999999999997          0.0000000000000000     
  -89.519999999999996          0.0000000000000000     
  -89.504999999999995          0.0000000000000000     
  -89.489999999999995          0.0000000000000000     
  -89.474999999999994          0.0000000000000000     
  -89.459999999999994          0.0000000000000000     
  -89.444999999999993          0.0000000000000000     
  -89.430000000000007          0.0000000000000000     
  -89.415000000000006          0.0000000000000000     
  -89.400000000000006          0.0000000000000000     
  -89.385000000000005          0.0000000000000000     
  -89.370000000000005          0.0000000000000000     
  -89.355000000000004          0.0000000000000000     
  -89.340000000000003          0.0000000000000000     
  -89.325000000000003          0.0000000000000000     
  -89.310000000000002          0.0000000000000000     
  -89.295000000000002          0.0000000000000000     
  -89.280000000000001          0.0000000000000000     
  -89.265000000000001          0.0000000000000000     
  -89.250000000000000          0.0000000000000000     
  -89.234999999999999          0.0000000000000000     
  -89.219999999999999          0.0000000000000000     
  -89.204999999999998          0.0000000000000000     
  -89.189999999999998          0.0000000000000000     
  -89.174999999999997          0.0000000000000000     
  -89.159999999999997          0.0000000000000000     
  -89.144999999999996          0.0000000000000000     
  -89.129999999999995          0.0000000000000000     
  -89.114999999999995          0.0000000000000000     
  -89.099999999999994          0.0000000000000000     
  -89.084999999999994          0.0000000000000000     
  -89.069999999999993          0.0000000000000000     
  -89.055000000000007          0.0000000000000000     
  -89.040000000000006          0.0000000000000000     
  -89.025000000000006          0.0000000000000000     
  -89.010000000000005          0.0000000000000000     
  -88.995000000000005          0.0000000000000000     
  -88.980000000000004          0.0000000000000000     
  -88.965000000000003          0.0000000000000000     
  -88.950000000000003          0.0000000000000000     
  -88.935000000000002          0.0000000000000000     
  -88.920000000000002          0.0000000000000000     
  -88.905000000000001          0.0000000000000000     
  -88.890000000000001          0.0000000000000000     
  -88.875000000000000          0.0000000000000000     
  -88.859999999999999          0.0000000000000000     
  -88.844999999999999          0.0000000000000000     
  -88.829999999999998          0.0000000000000000     
  -88.814999999999998          0.0000000000000000     
  -88.799999999999997          0.0000000000000000     
  -88.784999999999997          0.0000000000000000     
  -88.769999999999996          0.0000000000000000     
  -88.754999999999995          0.0000000000000000     
  -88.739999999999995          0.0000000000000000     
  -88.724999999999994          0.0000000000000000     
  -88.709999999999994          0.0000000000000000     
  -88.694999999999993          0.0000000000000000     
  -88.680000000000007          0.0000000000000000     
  -88.665000000000006          0.0000000000000000     
  -88.650000000000006          0.0000000000000000     
  -88.635000000000005          0.0000000000000000     
  -88.620000000000005          0.0000000000000000     
  -88.605000000000004          0.0000000000000000     
  -88.590000000000003          0.0000000000000000     
  -88.575000000000003          0.0000000000000000     
  -88.560000000000002          0.0000000000000000     
  -88.545000000000002          0.0000000000000000     
  -88.530000000000001          0.0000000000000000     
  -88.515000000000001          0.0000000000000000     
  -88.500000000000000          0.0000000000000000     
  -88.484999999999999          0.0000000000000000     
  -88.469999999999999          0.0000000000000000     
  -88.454999999999998          0.0000000000000000     
  -88.439999999999998          0.0000000000000000     
  -88.424999999999997          0.0000000000000000     
  -88.409999999999997          0.0000000000000000     
  -88.394999999999996          0.0000000000000000     
  -88.379999999999995          0.0000000000000000     
  -88.364999999999995          0.0000000000000000     
  -88.349999999999994          0.0000000000000000     
  -88.334999999999994          0.0000000000000000     
  -88.319999999999993          0.0000000000000000     
  -88.305000000000007          0.0000000000000000     
  -88.290000000000006          0.0000000000000000     
  -88.275000000000006          0.0000000000000000     
  -88.260000000000005          0.0000000000000000     
  -88.245000000000005          0.0000000000000000     
  -88.230000000000004          0.0000000000000000     
  -88.215000000000003          0.0000000000000000     
  -88.200000000000003          0.0000000000000000     
  -88.185000000000002          0.0000000000000000     
  -88.170000000000002          0.0000000000000000     
  -88.155000000000001          0.0000000000000000     
  -88.140000000000001          0.0000000000000000     
  -88.125000000000000          0.0000000000000000     
  -88.109999999999999          0.0000000000000000     
  -88.094999999999999          0.0000000000000000     
  -88.079999999999998          0.0000000000000000     
  -88.064999999999998          0.0000000000000000     
  -88.049999999999997          0.0000000000000000     
  -88.034999999999997          0.0000000000000000     
  -88.019999999999996          0.0000000000000000     
  -88.004999999999995          0.0000000000000000     
  -87.989999999999995          0.0000000000000000     
  -87.974999999999994          0.0000000000000000     
  -87.959999999999994          0.0000000000000000     
  -87.944999999999993          0.0000000000000000     
  -87.930000000000007          0.0000000000000000     
  -87.915000000000006          0.0000000000000000     
  -87.900000000000006          0.0000000000000000     
  -87.885000000000005          0.0000000000000000     
  -87.870000000000005          0.0000000000000000     
  -87.855000000000004          0.0000000000000000     
  -87.840000000000003          0.0000000000000000     
  -87.825000000000003          0.0000000000000000     
  -87.810000000000002          0.0000000000000000     
  -87.795000000000002          0.0000000000000000     
  -87.780000000000001          0.0000000000000000     
  -87.765000000000001          0.0000000000000000     
  -87.750000000000000          0.0000000000000000     
  -87.734999999999999          0.0000000000000000     
  -87.719999999999999          0.0000000000000000     
  -87.704999999999998          0.0000000000000000     
  -87.689999999999998          0.0000000000000000     
  -87.674999999999997          0.0000000000000000     
  -87.659999999999997          0.0000000000000000     
  -87.644999999999996          0.0000000000000000     
  -87.629999999999995          0.0000000000000000     
  -87.614999999999995          0.0000000000000000     
  -87.599999999999994          0.0000000000000000     
  -87.584999999999994          0.0000000000000000     
  -87.569999999999993          0.0000000000000000     
  -87.555000000000007          0.0000000000000000     
  -87.540000000000006          0.0000000000000000     
  -87.525000000000006          0.0000000000000000     
  -87.510000000000005          0.0000000000000000     
  -87.495000000000005          0.0000000000000000     
  -87.480000000000004          0.0000000000000000     
  -87.465000000000003          0.0000000000000000     
  -87.450000000000003          0.0000000000000000     
  -87.435000000000002          0.0000000000000000     
  -87.420000000000002          0.0000000000000000     
  -87.405000000000001          0.0000000000000000     
  -87.390000000000001          0.0000000000000000     
  -87.375000000000000          0.0000000000000000     
  -87.359999999999999          0.0000000000000000     
  -87.344999999999999          0.0000000000000000     
  -87.329999999999998          0.0000000000000000     
  -87.314999999999998          0.0000000000000000     
  -87.299999999999997          0.0000000000000000     
  -87.284999999999997          0.0000000000000000     
  -87.269999999999996          0.0000000000000000     
  -87.254999999999995          0.0000000000000000     
  -87.239999999999995          0.0000000000000000     
  -87.224999999999994          0.0000000000000000     
  -87.209999999999994          0.0000000000000000     
  -87.194999999999993          0.0000000000000000     
  -87.180000000000007          0.0000000000000000     
  -87.165000000000006          0.0000000000000000     
  -87.150000000000006          0.0000000000000000     
  -87.135000000000005          0.0000000000000000     
  -87.120000000000005          0.0000000000000000     
  -87.105000000000004          0.0000000000000000     
  -87.090000000000003          0.0000000000000000     
  -87.075000000000003          0.0000000000000000     
  -87.060000000000002          0.0000000000000000     
  -87.045000000000002          0.0000000000000000     
  -87.030000000000001          0.0000000000000000     
  -87.015000000000001          0.0000000000000000     
  -87.000000000000000          0.0000000000000000     
  -86.984999999999999          0.0000000000000000     
  -86.969999999999999          0.0000000000000000     
  -86.954999999999998          0.0000000000000000     
  -86.939999999999998          0.0000000000000000     
  -86.924999999999997          0.0000000000000000     
  -86.909999999999997          0.0000000000000000     
  -86.894999999999996          0.0000000000000000     
  -86.879999999999995          0.0000000000000000     
  -86.864999999999995          0.0000000000000000     
  -86.849999999999994          0.0000000000000000     
  -86.834999999999994          0.0000000000000000     
  -86.819999999999993          0.0000000000000000     
  -86.805000000000007          0.0000000000000000     
  -86.790000000000006          0.0000000000000000     
  -86.775000000000006          0.0000000000000000     
  -86.760000000000005          0.0000000000000000     
  -86.745000000000005          0.0000000000000000     
  -86.730000000000004          0.0000000000000000     
  -86.715000000000003          0.0000000000000000     
  -86.700000000000003          0.0000000000000000     
  -86.685000000000002          0.0000000000000000     
  -86.670000000000002          0.0000000000000000     
  -86.655000000000001          0.0000000000000000     
  -86.640000000000001          0.0000000000000000     
  -86.625000000000000          0.0000000000000000     
  -86.609999999999999          0.0000000000000000     
  -86.594999999999999          0.0000000000000000     
  -86.579999999999998          0.0000000000000000     
  -86.564999999999998          0.0000000000000000     
  -86.549999999999997          0.0000000000000000     
  -86.534999999999997          0.0000000000000000     
  -86.519999999999996          0.0000000000000000     
  -86.504999999999995          0.0000000000000000     
  -86.489999999999995          0.0000000000000000     
  -86.474999999999994          0.0000000000000000     
  -86.459999999999994          0.0000000000000000     
  -86.444999999999993          0.0000000000000000     
  -86.430000000000007          0.0000000000000000     
  -86.415000000000006          0.0000000000000000     
  -86.400000000000006          0.0000000000000000     
  -86.385000000000005          0.0000000000000000     
  -86.370000000000005          0.0000000000000000     
  -86.355000000000004          0.0000000000000000     
  -86.340000000000003          0.0000000000000000     
  -86.325000000000003          0.0000000000000000     
  -86.310000000000002          0.0000000000000000     
  -86.295000000000002          0.0000000000000000     
  -86.280000000000001          0.0000000000000000     
  -86.265000000000001          0.0000000000000000     
  -86.250000000000000          0.0000000000000000     
  -86.234999999999999          0.0000000000000000     
  -86.219999999999999          0.0000000000000000     
  -86.204999999999998          0.0000000000000000     
  -86.189999999999998          0.0000000000000000     
  -86.174999999999997          0.0000000000000000     
  -86.159999999999997          0.0000000000000000     
  -86.144999999999996          0.0000000000000000     
  -86.129999999999995          0.0000000000000000     
  -86.114999999999995          0.0000000000000000     
  -86.099999999999994          0.0000000000000000     
  -86.084999999999994          0.0000000000000000     
  -86.069999999999993          0.0000000000000000     
  -86.055000000000007          0.0000000000000000     
  -86.040000000000006          0.0000000000000000     
  -86.025000000000006          0.0000000000000000     
  -86.010000000000005          0.0000000000000000     
  -85.995000000000005          0.0000000000000000     
  -85.980000000000004          0.0000000000000000     
  -85.965000000000003          0.0000000000000000     
  -85.950000000000003          0.0000000000000000     
  -85.935000000000002          0.0000000000000000     
  -85.920000000000002          0.0000000000000000     
  -85.905000000000001          0.0000000000000000     
  -85.890000000000001          0.0000000000000000     
  -85.875000000000000          0.0000000000000000     
  -85.859999999999999          0.0000000000000000     
  -85.844999999999999          0.0000000000000000     
  -85.829999999999998          0.0000000000000000     
  -85.814999999999998          0.0000000000000000     
  -85.799999999999997          0.0000000000000000     
  -85.784999999999997          0.0000000000000000     
  -85.769999999999996          0.0000000000000000     
  -85.754999999999995          0.0000000000000000     
  -85.739999999999995          0.0000000000000000     
  -85.724999999999994          0.0000000000000000     
  -85.709999999999994          0.0000000000000000     
  -85.694999999999993          0.0000000000000000     
  -85.680000000000007          0.0000000000000000     
  -85.665000000000006          0.0000000000000000     
  -85.650000000000006          0.0000000000000000     
  -85.635000000000005          0.0000000000000000     
  -85.620000000000005          0.0000000000000000     
  -85.605000000000004          0.0000000000000000     
  -85.590000000000003          0.0000000000000000     
  -85.575000000000003          0.0000000000000000     
  -85.560000000000002          0.0000000000000000     
  -85.545000000000002          0.0000000000000000     
  -85.530000000000001          0.0000000000000000     
  -85.515000000000001          0.0000000000000000     
  -85.500000000000000          0.0000000000000000     
  -85.484999999999999          0.0000000000000000     
  -85.469999999999999          0.0000000000000000     
  -85.454999999999998          0.0000000000000000     
  -85.439999999999998          0.0000000000000000     
  -85.424999999999997          0.0000000000000000     
  -85.409999999999997          0.0000000000000000     
  -85.394999999999996          0.0000000000000000     
  -85.379999999999995         -1.8665338985058957E-038
  -85.364999999999995         -4.6032604106325525E-038
  -85.349999999999994         -8.3859389376962212E-038
  -85.334999999999994         -1.3379295056905059E-037
  -85.319999999999993         -1.9678692173430842E-037
  -85.305000000000007         -2.7372396956502618E-037
  -85.290000000000006         -3.5989281652026669E-037
  -85.275000000000006         -4.5096883133136928E-037
  -85.260000000000005         -5.4806105765493918E-037
  -85.245000000000005         -6.5172795216536683E-037
  -85.230000000000004         -7.6243936463254648E-037
  -85.215000000000003         -8.8057649308032535E-037
  -85.200000000000003         -1.0064370405648523E-036
  -85.185000000000002         -1.1402349012837219E-036
  -85.170000000000002         -1.3231163235721897E-036
  -85.155000000000001         -1.5570708373587410E-036
  -85.140000000000001         -1.8481647870097027E-036
  -85.125000000000000         -2.2524434745485406E-036
  -85.109999999999999         -2.7918258087672444E-036
  -85.094999999999999         -3.4772305279336299E-036
  -85.079999999999998         -4.3184024185140396E-036
  -85.064999999999998         -5.2509786088993863E-036
  -85.049999999999997         -6.2258834296330227E-036
  -85.034999999999997         -7.2122727096401042E-036
  -85.019999999999996         -8.2105762103440575E-036
  -85.004999999999995         -9.1583436419630075E-036
  -84.989999999999995         -1.0036250089739021E-035
  -84.974999999999994         -1.0846711975164754E-035
  -84.959999999999994         -1.1571356459290100E-035
  -84.944999999999993         -1.2245033677977387E-035
  -84.930000000000007         -1.2859889543910668E-035
  -84.915000000000006         -1.3403633167365860E-035
  -84.900000000000006         -1.3862434696593419E-035
  -84.885000000000005         -1.4220771062883391E-035
  -84.870000000000005         -1.4279824156772234E-035
  -84.855000000000004         -1.4036682506045815E-035
  -84.840000000000003         -1.3494395336162504E-035
  -84.825000000000003         -1.2691565123960463E-035
  -84.810000000000002         -1.1579391347739110E-035
  -84.795000000000002         -1.0241178847021137E-035
  -84.780000000000001         -8.5549514288235735E-036
  -84.765000000000001         -6.4783270116695071E-036
  -84.750000000000000         -3.9893536833855159E-036
  -84.734999999999999         -1.1121631039322483E-036
  -84.719999999999999          2.1912091082597416E-036
  -84.704999999999998          5.8999348599646449E-036
  -84.689999999999998          1.0033257544000935E-035
  -84.674999999999997          1.4604732402460697E-035
  -84.659999999999997          1.9599502891445935E-035
  -84.644999999999996          2.4864827926760752E-035
  -84.629999999999995          3.0384192903322613E-035
  -84.614999999999995          3.6066465440490985E-035
  -84.599999999999994          4.1806132292898847E-035
  -84.584999999999994          4.7539726523123262E-035
  -84.569999999999993          5.3165956448761220E-035
  -84.555000000000007          5.8579704865022881E-035
  -84.540000000000006          6.3617639472132002E-035
  -84.525000000000006          6.8187419678701724E-035
  -84.510000000000005          7.2167455287818866E-035
  -84.495000000000005          7.5459453620001827E-035
  -84.480000000000004          7.8005977312122295E-035
  -84.465000000000003          7.9629531308980912E-035
  -84.450000000000003          8.0129328777665250E-035
  -84.435000000000002          7.9346333597703707E-035
  -84.420000000000002          7.7154639303863677E-035
  -84.405000000000001          7.3382174874937635E-035
  -84.390000000000001          6.7871631845725452E-035
  -84.375000000000000          6.0457614487646584E-035
  -84.359999999999999          5.0974147360550993E-035
  -84.344999999999999          3.9329727871954261E-035
  -84.329999999999998          2.5320816993918473E-035
  -84.314999999999998          8.7728038797954857E-036
  -84.299999999999997         -1.0477853987381369E-035
  -84.284999999999997         -3.2518886052641079E-035
  -84.269999999999996         -5.7409536972977757E-035
  -84.254999999999995         -8.5250724631626455E-035
  -84.239999999999995         -1.1599205430007048E-034
  -84.224999999999994         -1.4957790236623063E-034
  -84.209999999999994         -1.8586947669681963E-034
  -84.194999999999993         -2.2471443368314841E-034
  -84.180000000000007         -2.6580057855602786E-034
  -84.165000000000006         -3.0876733071923065E-034
  -84.150000000000006         -3.5315787745599291E-034
  -84.135000000000005         -3.9840846361427475E-034
  -84.120000000000005         -4.4384122843806000E-034
  -84.105000000000004         -4.8867981760170305E-034
  -84.090000000000003         -5.3200523329515088E-034
  -84.075000000000003         -5.7277918339884124E-034
  -84.060000000000002         -6.0984123458332175E-034
  -84.045000000000002         -6.4189944508864180E-034
  -84.030000000000001         -6.6753918093198368E-034
  -84.015000000000001         -6.8523037091185911E-034
  -84.000000000000000         -6.9331487922738747E-034
  -83.984999999999999         -6.9010150929907128E-034
  -83.969999999999999         -6.7380300461843179E-034
  -83.954999999999998         -6.4259321634436734E-034
  -83.939999999999998         -5.9463786819436631E-034
  -83.924999999999997         -5.2813092330098563E-034
  -83.909999999999997         -4.4134247642309722E-034
  -83.894999999999996         -3.3271506642248367E-034
  -83.879999999999995         -2.0077225402741295E-034
  -83.864999999999995         -4.4301595449155472E-035
  -83.849999999999994          1.3756056188661033E-034
  -83.834999999999994          3.4535776071319180E-034
  -83.819999999999993          5.7907459849596770E-034
  -83.805000000000007          8.3821058326031398E-034
  -83.790000000000006          1.1216522096153150E-033
  -83.775000000000006          1.4275927978450546E-033
  -83.760000000000005          1.7534579234857358E-033
  -83.745000000000005          2.0958371835520355E-033
  -83.730000000000004          2.4504019119325467E-033
  -83.715000000000003          2.8118943428012322E-033
  -83.700000000000003          3.1740540503850016E-033
  -83.685000000000002          3.5296050919942496E-033
  -83.670000000000002          3.8702442530793477E-033
  -83.655000000000001          4.1866601490138447E-033
  -83.640000000000001          4.4685760204356768E-033
  -83.625000000000000          4.7048195282242475E-033
  -83.609999999999999          4.8834259765981091E-033
  -83.594999999999999          4.9917712909133993E-033
  -83.579999999999998          5.0167454030805881E-033
  -83.564999999999998          4.9449594324438095E-033
  -83.549999999999997          4.7629929069365194E-033
  -83.534999999999997          4.4576788204615696E-033
  -83.519999999999996          4.0164276285216534E-033
  -83.504999999999995          3.4275850393123372E-033
  -83.489999999999995          2.6808248859746239E-033
  -83.474999999999994          1.7675719372192652E-033
  -83.459999999999994          6.8144564644419598E-034
  -83.444999999999993         -5.8127134948181492E-034
  -83.430000000000007         -2.0212096389931364E-033
  -83.415000000000006         -3.6352952584446200E-033
  -83.400000000000006         -5.4164245026197048E-033
  -83.385000000000005         -7.3529706303628044E-033
  -83.370000000000005         -9.4283683548769404E-033
  -83.355000000000004         -1.1620751277184911E-032
  -83.340000000000003         -1.3902645155572121E-032
  -83.325000000000003         -1.6240713704933220E-032
  -83.310000000000002         -1.8595644720756866E-032
  -83.295000000000002         -2.0922093508460087E-032
  -83.280000000000001         -2.3168767372044753E-032
  -83.265000000000001         -2.5278635733712784E-032
  -83.250000000000000         -2.7189287190275207E-032
  -83.234999999999999         -2.8833442322562709E-032
  -83.219999999999999         -3.0139639890252927E-032
  -83.204999999999998         -3.1033083187803038E-032
  -83.189999999999998         -3.1436680356950239E-032
  -83.174999999999997         -3.1272249268421340E-032
  -83.159999999999997         -3.0461925176417874E-032
  -83.144999999999996         -2.8929724126102686E-032
  -83.129999999999995         -2.6603276807767403E-032
  -83.114999999999995         -2.3415719633369315E-032
  -83.099999999999994         -1.9307732749862114E-032
  -83.084999999999994         -1.4229679438914389E-032
  -83.069999999999993         -8.1438446989639780E-033
  -83.055000000000007         -1.0267385712971002E-033
  -83.040000000000006          7.1285753709465531E-033
  -83.025000000000006          1.6310160441811863E-032
  -83.010000000000005          2.6484936852734246E-032
  -82.995000000000005          3.7596508792865067E-032
  -82.980000000000004          4.9563144139991651E-032
  -82.965000000000003          6.2275933342510313E-032
  -82.950000000000003          7.5597246583090902E-032
  -82.935000000000002          8.9359417225003883E-032
  -82.920000000000002          1.0336388663998011E-031
  -82.905000000000001          1.1738071637805523E-031
  -82.890000000000001          1.3114859992251320E-031
  -82.875000000000000          1.4437542692717470E-031
  -82.859999999999999          1.5673946458821965E-031
  -82.844999999999999          1.6789113264065702E-031
  -82.829999999999998          1.7745563646567063E-031
  -82.814999999999998          1.8503617619019690E-031
  -82.799999999999997          1.9021811969187030E-031
  -82.784999999999997          1.9257393967529676E-031
  -82.769999999999996          1.9166907938886428E-031
  -82.754999999999995          1.8706866469748618E-031
  -82.739999999999995          1.7834518006071189E-031
  -82.724999999999994          1.6508706139643150E-031
  -82.709999999999994          1.4690813530051289E-031
  -82.694999999999993          1.2345798690697593E-031
  -82.680000000000007          9.4433074187079532E-032
  -82.665000000000006          5.9588688604341268E-032
  -82.650000000000006          1.8751456496958360E-032
  -82.635000000000005         -2.8167560037652408E-032
  -82.620000000000005         -8.1159403732537770E-032
  -82.605000000000004         -1.4010357466179493E-031
  -82.590000000000003         -2.0475440038357379E-031
  -82.575000000000003         -2.7472769995666685E-031
  -82.560000000000002         -3.4948794166472650E-031
  -82.545000000000002         -4.2833636464584993E-031
  -82.530000000000001         -5.1040030540387370E-031
  -82.515000000000001         -5.9462419352164640E-031
  -82.500000000000000         -6.7976256922458481E-031
  -82.484999999999999         -7.6437582809112389E-031
  -82.469999999999999         -8.4682866940017370E-031
  -82.454999999999998         -9.2529254115936912E-031
  -82.439999999999998         -9.9775170565592011E-031
  -82.424999999999997         -1.0620141950639613E-030
  -82.409999999999997         -1.1157278922072714E-030
  -82.394999999999996         -1.1564018775366838E-030
  -82.379999999999995         -1.1814339827176704E-030
  -82.364999999999995         -1.1881449269862889E-030
  -82.349999999999994         -1.1738191303130436E-030
  -82.334999999999994         -1.1357519212560147E-030
  -82.319999999999993         -1.0713042679778320E-030
  -82.305000000000007         -9.7796446818920645E-031
  -82.290000000000006         -8.5341613974218180E-031
  -82.275000000000006         -6.9561265293242834E-031
  -82.260000000000005         -5.0285720517442111E-031
  -82.245000000000005         -2.7388755063424715E-031
  -82.230000000000004         -7.9644561795048350E-033
  -82.215000000000003          2.9503760923153014E-031
  -82.200000000000003          6.3453913863884589E-031
  -82.185000000000002          1.0091656617628565E-030
  -82.170000000000002          1.4166609347465935E-030
  -82.155000000000001          1.8538065010772797E-030
  -82.140000000000001          2.3163486698772555E-030
  -82.125000000000000          2.7989385656920871E-030
  -82.109999999999999          3.2950844504396975E-030
  -82.094999999999999          3.7971224771109175E-030
  -82.079999999999998          4.2962076619728720E-030
  -82.064999999999998          4.7823296832130544E-030
  -82.049999999999997          5.2443516252331303E-030
  -82.034999999999997          5.6700844579710050E-030
  -82.019999999999996          6.0463859665053892E-030
  -82.004999999999995          6.3593003057451286E-030
  -81.989999999999995          6.5942299047230677E-030
  -81.974999999999994          6.7361468675001021E-030
  -81.960000000000008          6.7698370998319573E-030
  -81.944999999999993          6.6801873178698850E-030
  -81.930000000000007          6.4525055349404720E-030
  -81.915000000000006          6.0728757787209435E-030
  -81.900000000000006          5.5285402679625033E-030
  -81.885000000000005          4.8083124341854380E-030
  -81.870000000000005          3.9030083751256433E-030
  -81.855000000000004          2.8058922260342633E-030
  -81.840000000000003          1.5131286779829831E-030