  -90.000000000000000          0.0000000000000000     
  -89.984999999999999          0.0000000000000000     
  -89.969999999999999          0.0000000000000000     
  -89.954999999999998          0.0000000000000000     
  -89.939999999999998          1.0953469125877506E-020
  -89.924999999999997          9.8394710676225321E-020
  -89.909999999999997          4.9069465460593720E-019
  -89.894999999999996          1.7930423974987863E-018
  -89.879999999999995          5.3554675522306579E-018
  -89.864999999999995          1.3847388920303133E-017
  -89.849999999999994          3.2091027729366344E-017
  -89.834999999999994          6.8200115062711072E-017
  -89.819999999999993          1.3505749761556687E-016
  -89.805000000000007          2.5214476773866012E-016
  -89.790000000000006          4.4770847575456183E-016
  -89.775000000000006          7.6121151609893543E-016
  -89.760000000000005          1.2459774185980769E-015
  -89.745000000000005          1.9718910071421167E-015
  -89.730000000000004          3.0279738033611465E-015
  -89.715000000000003          4.5246187642378720E-015
  -89.700000000000003          6.5952361200636873E-015
  -89.685000000000002          9.3970495854090938E-015
  -89.670000000000002          1.3110793544845057E-014
  -89.655000000000001          1.7939088867266646E-014
  -89.640000000000001          2.4103306766405826E-014
  -89.625000000000000          3.1838850403798774E-014
  -89.609999999999999          4.1388825011571054E-014
  -89.594999999999999          5.2996229095696873E-014
  -89.579999999999998          6.6894833585223051E-014
  -89.564999999999998          8.3299130939316901E-014
  -89.549999999999997          1.0239379466927059E-013
  -89.534999999999997          1.2432305076907901E-013
  -89.519999999999996          1.4918059463523564E-013
  -89.504999999999995          1.7700061251749166E-013
  -89.489999999999995          2.0775019887991214E-013
  -89.474999999999994          2.4132375243089699E-013
  -89.459999999999994          2.7753946601864754E-013
  -89.444999999999993          3.1613795782592380E-013
  -89.430000000000007          3.5678279991860351E-013
  -89.415000000000006          3.9906270020255430E-013
  -89.400000000000006          4.4249451108466231E-013
  -89.385000000000005          4.8652667181472986E-013
  -89.370000000000005          5.3054153952014627E-013
  -89.355000000000004          5.7385650051311465E-013
  -89.340000000000003          6.1572242530255616E-013
  -89.325000000000003          6.5531889810455102E-013
  -89.310000000000002          6.9174613953615349E-013
  -89.295000000000002          7.2401286355106009E-013
  -89.280000000000001          7.5102147807995512E-013
  -89.265000000000001          7.7155057516542502E-013
  -89.250000000000000          7.8423666215535204E-013
  -89.234999999999999          7.8755703130858890E-013
  -89.219999999999999          7.7981604463747689E-013
  -89.204999999999998          7.5913721923198674E-013
  -89.189999999999998          7.2346469093265142E-013
  -89.174999999999997          6.7057568265554979E-013
  -89.159999999999997          5.9810722997585830E-013
  -89.144999999999996          5.0359922395409873E-013
  -89.129999999999995          3.8455385252024465E-013
  -89.114999999999995          2.3851322934927144E-013
  -89.099999999999994          6.3152730115680067E-014
  -89.084999999999994         -1.4361093965496036E-013
  -89.069999999999993         -3.8350122773603279E-013
  -89.055000000000007         -6.5775683510960192E-013
  -89.040000000000006         -9.6700707337415981E-013
  -89.025000000000006         -1.3111525754005982E-012
  -89.010000000000005         -1.6892609273205794E-012
  -88.995000000000005         -2.0994824802278433E-012
  -88.980000000000004         -2.5389944053461067E-012
  -88.965000000000003         -3.0039790099856134E-012
  -88.950000000000003         -3.4896419521396327E-012
  -88.935000000000002         -3.9902738231678558E-012
  -88.920000000000002         -4.4993553154071275E-012
  -88.905000000000001         -5.0097057578690762E-012
  -88.890000000000001         -5.5136745863437753E-012
  -88.875000000000000         -6.0033623038024952E-012
  -88.859999999999999         -6.4708728826634587E-012
  -88.844999999999999         -6.9085770090793197E-012
  -88.829999999999998         -7.3093831334802850E-012
  -88.814999999999998         -7.6669963780529038E-012
  -88.799999999999997         -7.9761553264945384E-012
  -88.784999999999997         -8.2328336856174467E-012
  -88.769999999999996         -8.4343912062911919E-012
  -88.754999999999995         -8.5796656237868696E-012
  -88.739999999999995         -8.6690038827996752E-012
  -88.724999999999994         -8.7042118304681004E-012
  -88.709999999999994         -8.6884405919862573E-012
  -88.694999999999993         -8.6259966183832582E-012
  -88.680000000000007         -8.5220884168957234E-012
  -88.665000000000006         -8.3825229743594853E-012
  -88.650000000000006         -8.2133544757057031E-012
  -88.635000000000005         -8.0205130731370033E-012
  -88.620000000000005         -7.8094206448775516E-012
  -88.605000000000004         -7.5846204317109311E-012
  -88.590000000000003         -7.3494318270084236E-012
  -88.575000000000003         -7.1056563410998308E-012
  -88.560000000000002         -6.8533403778381352E-012
  -88.545000000000002         -6.5906156400397098E-012
  -88.530000000000001         -6.3136236690131131E-012
  -88.515000000000001         -6.0165297223468972E-012
  -88.500000000000000         -5.6916264236372971E-012
  -88.484999999999999         -5.3295293525601473E-012
  -88.469999999999999         -4.9194493964566099E-012
  -88.454999999999998         -4.4495379603048946E-012
  -88.439999999999998         -3.9072885552049463E-012
  -88.424999999999997         -3.2799780686626478E-012
  -88.409999999999997         -2.5551327546835534E-012
  -88.394999999999996         -1.7209981269944441E-012
  -88.379999999999995         -7.6699790182294114E-013
  -88.364999999999995          3.1583481489849685E-013
  -88.349999999999994          1.5344685157930860E-012
  -88.334999999999994          2.8935363220045085E-012
  -88.319999999999993          4.3950624389887949E-012
  -88.305000000000007          6.0382527970748168E-012
  -88.290000000000006          7.8193562735862088E-012
  -88.275000000000006          9.7315966049449365E-012
  -88.260000000000005          1.1765167833022172E-011
  -88.245000000000005          1.3907296321502560E-011
  -88.230000000000004          1.6142358283399716E-011
  -88.215000000000003          1.8452054120765560E-011
  -88.200000000000003          2.0815626999848291E-011
  -88.185000000000002          2.3210133467954641E-011
  -88.170000000000002          2.5610754836313809E-011
  -88.155000000000001          2.7991142390049184E-011
  -88.140000000000001          3.0323816374577817E-011
  -88.125000000000000          3.2580597941755940E-011
  -88.109999999999999          3.4733087933558338E-011
  -88.094999999999999          3.6753173421333329E-011
  -88.079999999999998          3.8613612307614176E-011
  -88.064999999999998          4.0288602315419197E-011
  -88.049999999999997          4.1754412427597032E-011
  -88.034999999999997          4.2990031673406648E-011
  -88.019999999999996          4.3977814445650409E-011
  -88.004999999999995          4.4704101531678475E-011
  -87.989999999999995          4.5159827266605390E-011
  -87.974999999999994          4.5341026072565072E-011
  -87.959999999999994          4.5249283486814562E-011
  -87.944999999999993          4.4892027595277995E-011
  -87.930000000000007          4.4282678218765525E-011
  -87.915000000000006          4.3440612218503816E-011
  -87.900000000000006          4.2390920634849394E-011
  -87.885000000000005          4.1163933373056238E-011
  -87.870000000000005          3.9794511436097579E-011
  -87.855000000000004          3.8321103235094967E-011
  -87.840000000000003          3.6784568446801558E-011
  -87.825000000000003          3.5226807582056097E-011
  -87.810000000000002          3.3689221551336246E-011
  -87.795000000000002          3.2211018574646033E-011
  -87.780000000000001          3.0827489866380731E-011
  -87.765000000000001          2.9568243686828311E-011
  -87.750000000000000          2.8455522660397747E-011
  -87.734999999999999          2.7502632116149783E-011
  -87.719999999999999          2.6712590472932618E-011
  -87.704999999999998          2.6077050241379851E-011
  -87.689999999999998          2.5575541684474956E-011
  -87.674999999999997          2.5175117199238706E-011
  -87.659999999999997          2.4830408562603878E-011
  -87.644999999999996          2.4484142144287624E-011
  -87.629999999999995          2.4068101678320630E-011
  -87.614999999999995          2.3504543797403521E-011
  -87.599999999999994          2.2708017757833154E-011
  -87.584999999999994          2.1587559864699735E-011
  -87.569999999999993          2.0049196677862646E-011
  -87.555000000000007          1.7998670262531213E-011
  -87.540000000000006          1.5344314360787870E-011
  -87.525000000000006          1.1999988676347773E-011
  -87.510000000000005          7.8879576481671876E-012
  -87.495000000000005          2.9416438902807318E-012
  -87.480000000000004         -2.8918497371049900E-012
  -87.465000000000003         -9.6495259699347358E-012
  -87.450000000000003         -1.7350660838633125E-011
  -87.435000000000002         -2.5995393337918671E-011
  -87.420000000000002         -3.5563815781181063E-011
  -87.405000000000001         -4.6015538601729133E-011
  -87.390000000000001         -5.7289777088964655E-011
  -87.375000000000000         -6.9305942929087649E-011
  -87.359999999999999         -8.1964685039181973E-011
  -87.344999999999999         -9.5149409184980271E-011
  -87.329999999999998         -1.0872815148221804E-010
  -87.314999999999998         -1.2255582659825848E-010
  -87.299999999999997         -1.3647673269279181E-010
  -87.284999999999997         -1.5032720901420049E-010
  -87.269999999999996         -1.6393861268504395E-010
  -87.254999999999995         -1.7714019140413484E-010
  -87.239999999999995         -1.8976202553755428E-010
  -87.224999999999994         -2.0163802572081835E-010
  -87.209999999999994         -2.1260875004980306E-010
  -87.194999999999993         -2.2252413800494253E-010
  -87.180000000000007         -2.3124603620860995E-010
  -87.165000000000006         -2.3865054377125716E-010
  -87.150000000000006         -2.4463001069285895E-010
  -87.135000000000005         -2.4909499463099394E-010
  -87.120000000000005         -2.5197560704626198E-010
  -87.105000000000004         -2.5322269281424781E-010
  -87.090000000000003         -2.5280866289278947E-010
  -87.075000000000003         -2.5072777187773454E-010
  -87.060000000000002         -2.4699625678081816E-010
  -87.045000000000002         -2.4165180967372635E-010
  -87.030000000000001         -2.3475263399852508E-010
  -87.015000000000001         -2.2637629271127224E-010
  -87.000000000000000         -2.1661783478066354E-010
  -86.984999999999999         -2.0558774127543700E-010
  -86.969999999999999         -1.9340927470690161E-010
  -86.954999999999998         -1.8021573122695145E-010
  -86.939999999999998         -1.6614723485908200E-010
  -86.924999999999997         -1.5134743458489197E-010
  -86.909999999999997         -1.3596004877491907E-010
  -86.894999999999996         -1.2012540961947593E-010
  -86.879999999999995         -1.0397705613174324E-010
  -86.864999999999995         -8.7638625523300817E-011
  -86.849999999999994         -7.1220959685369678E-011
  -86.834999999999994         -5.4819662698157856E-011
  -86.819999999999993         -3.8513178757249023E-011
  -86.805000000000007         -2.2361447762908604E-011
  -86.790000000000006         -6.4052049254803567E-012
  -86.775000000000006          9.3340248724649300E-012
  -86.760000000000005          2.4853232319377305E-011
  -86.745000000000005          4.0166554110543373E-011
  -86.730000000000004          5.5303268908790670E-011
  -86.715000000000003          7.0305233856871041E-011
  -86.700000000000003          8.5223862689165486E-011
  -86.685000000000002          1.0011674822507644E-010
  -86.670000000000002          1.1504412006368980E-010
  -86.655000000000001          1.3006519472558153E-010
  -86.640000000000001          1.4523471314475955E-010
  -86.625000000000000          1.6059958918290818E-010
  -86.609999999999999          1.7619611325514484E-010
  -86.594999999999999          1.9204754453383543E-010
  -86.579999999999998          2.0816241785848177E-010
  -86.564999999999998          2.2453339187933352E-010
  -86.549999999999997          2.4113699925720766E-010
  -86.534999999999997          2.5793395197482027E-010
  -86.519999999999996          2.7487037645990142E-010
  -86.504999999999995          2.9187946504194429E-010
  -86.489999999999995          3.0888375190940565E-010
  -86.474999999999994          3.2579794417841867E-010
  -86.459999999999994          3.4253194725053504E-010
  -86.444999999999993          3.5899400119276947E-010
  -86.430000000000007          3.7509401140667364E-010
  -86.415000000000006          3.9074646296377580E-010
  -86.400000000000006          4.0587330718544479E-010
  -86.385000000000005          4.2040618208893932E-010
  -86.370000000000005          4.3428832752212543E-010
  -86.355000000000004          4.4747569538650112E-010
  -86.340000000000003          4.5993742148198180E-010
  -86.325000000000003          4.7165576999574910E-010
  -86.310000000000002          4.8262505103480180E-010
  -86.295000000000002          4.9285037162505319E-010
  -86.280000000000001          5.0234544302085737E-010
  -86.265000000000001          5.1112974963629654E-010
  -86.250000000000000          5.1922582899877057E-010
  -86.234999999999999          5.2665594107992320E-010
  -86.219999999999999          5.3343840455966074E-010
  -86.204999999999998          5.3958426615707822E-010
  -86.189999999999998          5.4509402547253671E-010
  -86.174999999999997          5.4995419329628703E-010
  -86.159999999999997          5.5413462707321059E-010
  -86.144999999999996          5.5758586636756036E-010
  -86.129999999999995          5.6023735650612139E-010
  -86.114999999999995          5.6199578324367394E-010
  -86.099999999999994          5.6274451765148115E-010
  -86.084999999999994          5.6234317202807915E-010
  -86.069999999999993          5.6062809949963821E-010
  -86.055000000000007          5.5741361526528976E-010
  -86.040000000000006          5.5249360642051215E-010
  -86.025000000000006          5.4564419649238971E-010
  -86.010000000000005          5.3662657650832557E-010
  -85.995000000000005          5.2519089077662784E-010
  -85.980000000000004          5.1108034471170072E-010
  -85.965000000000003          4.9403614532650408E-010
  -85.950000000000003          4.7380283030307169E-010
  -85.935000000000002          4.5013373584090743E-010
  -85.920000000000002          4.2279735268380136E-010
  -85.905000000000001          3.9158346010204070E-010
  -85.890000000000001          3.5630950967480146E-010
  -85.875000000000000          3.1682720336156933E-010
  -85.859999999999999          2.7302868299550198E-010
  -85.844999999999999          2.2485248385439860E-010
  -85.829999999999998          1.7228918292033768E-010
  -85.814999999999998          1.1538612426642558E-010
  -85.799999999999997          5.4251571984798019E-011
  -85.784999999999997         -1.0942326905682975E-011
  -85.769999999999996         -7.9957679366415846E-011
  -85.754999999999995         -1.5249027041086549E-010
  -85.739999999999995         -2.2817049638579334E-010
  -85.724999999999994         -3.0656571725629078E-010
  -85.709999999999994         -3.8718434014484160E-010
  -85.694999999999993         -4.6948117615741580E-010
  -85.680000000000007         -5.5286469846649311E-010
  -85.665000000000006         -6.3670518857250613E-010
  -85.650000000000006         -7.2034467279991077E-010
  -85.635000000000005         -8.0310741390476892E-010
  -85.620000000000005         -8.8431140188305335E-010
  -85.605000000000004         -9.6328045540161611E-010
  -85.590000000000003         -1.0393560456734008E-009
  -85.575000000000003         -1.1119096754441671E-009
  -85.560000000000002         -1.1803539257115858E-009
  -85.545000000000002         -1.2441535579554852E-009
  -85.530000000000001         -1.3028343959220479E-009
  -85.515000000000001         -1.3559920963857053E-009
  -85.500000000000000         -1.4032980333311684E-009
  -85.484999999999999         -1.4445045160016434E-009
  -85.469999999999999         -1.4794471203671833E-009
  -85.454999999999998         -1.5080454662808052E-009
  -85.439999999999998         -1.5303018852108607E-009
  -85.424999999999997         -1.5462986446834748E-009
  -85.409999999999997         -1.5561925081897243E-009
  -85.394999999999996         -1.5602085179367009E-009
  -85.379999999999995         -1.5586318902194307E-009
  -85.364999999999995         -1.5517988005697703E-009
  -85.349999999999994         -1.5400869468606970E-009
  -85.334999999999994         -1.5239046691206681E-009
  -85.319999999999993         -1.5036804024148864E-009
  -85.305000000000007         -1.4798521297265665E-009
  -85.290000000000006         -1.4528570568828059E-009
  -85.275000000000006         -1.4231220646365728E-009
  -85.260000000000005         -1.3910540497263923E-009
  -85.245000000000005         -1.3570324863820815E-009
  -85.230000000000004         -1.3214016547635765E-009
  -85.215000000000003         -1.2844655339350197E-009
  -85.200000000000003         -1.2464822507496365E-009
  -85.185000000000002         -1.2076607491806612E-009
  -85.170000000000002         -1.1681583478306834E-009
  -85.155000000000001         -1.1280795186863202E-009
  -85.140000000000001         -1.0874753320067043E-009
  -85.125000000000000         -1.0463444555242063E-009
  -85.109999999999999         -1.0046347087566687E-009
  -85.094999999999999         -9.6224583856496793E-010
  -85.079999999999998         -9.1903235022172680E-010
  -85.064999999999998         -8.7480800381456447E-010
  -85.049999999999997         -8.2935003309358990E-010
  -85.034999999999997         -7.8240469658652501E-010
  -85.019999999999996         -7.3369277320267656E-010
  -85.004999999999995         -6.8291577948187410E-010
  -84.989999999999995         -6.2976235337686148E-010
  -84.974999999999994         -5.7391508212489839E-010
  -84.959999999999994         -5.1505738563051295E-010
  -84.944999999999993         -4.5288059413728377E-010
  -84.930000000000007         -3.8709097038847062E-010
  -84.915000000000006         -3.1741664852091844E-010
  -84.900000000000006         -2.4361418438090254E-010
  -84.885000000000005         -1.6547495318430805E-010
  -84.870000000000005         -8.2830860226312808E-011
  -84.855000000000004          4.4405234697619811E-012
  -84.840000000000003          9.6411503780480245E-011
  -84.825000000000003          1.9310071597278267E-010
  -84.810000000000002          2.9447047578123886E-010
  -84.795000000000002          4.0042513749227737E-010
  -84.780000000000001          5.1081028296096065E-010
  -84.765000000000001          6.2541305467789243E-010
  -84.750000000000000          7.4396344640348389E-010
  -84.734999999999999          8.6613627381382230E-010
  -84.719999999999999          9.9155428312514005E-010
  -84.704999999999998          1.1197913707405860E-009
  -84.689999999999998          1.2503768020977191E-009
  -84.674999999999997          1.3827994305160018E-009
  -84.659999999999997          1.5165126932004114E-009
  -84.644999999999996          1.6509390521335376E-009
  -84.629999999999995          1.7854744349676821E-009
  -84.614999999999995          1.9194932310284685E-009
  -84.599999999999994          2.0523520660731265E-009
  -84.584999999999994          2.1833947982941027E-009
  -84.569999999999993          2.3119546277428071E-009
  -84.555000000000007          2.4373594254001318E-009
  -84.540000000000006          2.5589332874886850E-009
  -84.525000000000006          2.6760014204540994E-009
  -84.510000000000005          2.7878916952772670E-009
  -84.495000000000005          2.8939395324556472E-009
  -84.480000000000004          2.9934899004047111E-009
  -84.465000000000003          3.0859024224838549E-009
  -84.450000000000003          3.1705544856208689E-009
  -84.435000000000002          3.2468465693824555E-009
  -84.420000000000002          3.3142073530001426E-009
  -84.405000000000001          3.3720988223961967E-009
  -84.390000000000001          3.4200233756109810E-009
  -84.375000000000000          3.4575284857396582E-009
  -84.359999999999999          3.4842142504487583E-009
  -84.344999999999999          3.4997400533143264E-009
  -84.329999999999998          3.5038298928924405E-009
  -84.314999999999998          3.4962788220127550E-009
  -84.299999999999997          3.4769573886705984E-009
  -84.284999999999997          3.4458158548744677E-009
  -84.269999999999996          3.4028873052704967E-009
  -84.254999999999995          3.3482889794100856E-009
  -84.239999999999995          3.2822220497052967E-009
  -84.224999999999994          3.2049700671166192E-009
  -84.209999999999994          3.1168960745731056E-009
  -84.194999999999993          3.0184368338126433E-009
  -84.180000000000007          2.9100970522222269E-009
  -84.165000000000006          2.7924416112767858E-009
  -84.150000000000006          2.6660855745319623E-009
  -84.135000000000005          2.5316844176614950E-009
  -84.120000000000005          2.3899235923607876E-009
  -84.105000000000004          2.2415063138936375E-009
  -84.090000000000003          2.0871426809065952E-009
  -84.075000000000003          1.9275383511541122E-009
  -84.060000000000002          1.7633837723352030E-009
  -84.045000000000002          1.5953443011085255E-009
  -84.030000000000001          1.4240510992635791E-009
  -84.015000000000001          1.2500935842041372E-009
  -84.000000000000000          1.0740132116993095E-009
  -83.984999999999999          8.9629853539108240E-010
  -83.969999999999999          7.1738170959179115E-010
  -83.954999999999998          5.3763704599418816E-010
  -83.939999999999998          3.5738062509338420E-010
  -83.924999999999997          1.7687147579881213E-010
  -83.909999999999997         -3.6860510303771132E-012
  -83.894999999999996         -1.8413862101773759E-010
  -83.879999999999995         -3.6437933226274311E-010
  -83.864999999999995         -5.4434218244026056E-010
  -83.849999999999994         -7.2399597428329798E-010
  -83.834999999999994         -9.0333757141181081E-010
  -83.819999999999993         -1.0823849594387980E-009
  -83.805000000000007         -1.2611697242093101E-009
  -83.790000000000006         -1.4397297798396380E-009
  -83.775000000000006         -1.6181015416449895E-009
  -83.760000000000005         -1.7963128762232827E-009
  -83.745000000000005         -1.9743755519385786E-009
  -83.730000000000004         -2.1522783555383285E-009
  -83.715000000000003         -2.3299804308152261E-009
  -83.700000000000003         -2.5074047282913625E-009
  -83.685000000000002         -2.6844324541031028E-009
  -83.670000000000002         -2.8608979629751730E-009
  -83.655000000000001         -3.0365840952839562E-009
  -83.640000000000001         -3.2112188463884195E-009
  -83.625000000000000         -3.3844724800502490E-009
  -83.609999999999999         -3.5559559741216162E-009
  -83.594999999999999         -3.7252210205451775E-009
  -83.579999999999998         -3.8917598033094691E-009
  -83.564999999999998         -4.0550078850287719E-009
  -83.549999999999997         -4.2143470935229743E-009
  -83.534999999999997         -4.3691117390665113E-009
  -83.519999999999996         -4.5185917230128325E-009
  -83.504999999999995         -4.6620427518462293E-009
  -83.489999999999995         -4.7986929985199822E-009
  -83.474999999999994         -4.9277528724189779E-009
  -83.459999999999994         -5.0484247893223255E-009
  -83.444999999999993         -5.1599138295443936E-009
  -83.430000000000007         -5.2614370638082164E-009
  -83.415000000000006         -5.3522373200109996E-009
  -83.400000000000006         -5.4315898445622679E-009
  -83.385000000000005         -5.4988156250601605E-009
  -83.370000000000005         -5.5532871634511594E-009
  -83.355000000000004         -5.5944386900819154E-009
  -83.340000000000003         -5.6217732691266065E-009
  -83.325000000000003         -5.6348667953898257E-009
  -83.310000000000002         -5.6333737674663098E-009
  -83.295000000000002         -5.6170295081869881E-009
  -83.280000000000001         -5.5856519409758221E-009
  -83.265000000000001         -5.5391429221174349E-009
  -83.250000000000000         -5.4774860203110620E-009
  -83.234999999999999         -5.4007460725813417E-009
  -83.219999999999999         -5.3090660756538455E-009
  -83.204999999999998         -5.2026645214198197E-009
  -83.189999999999998         -5.0818318442225063E-009
  -83.174999999999997         -4.9469259799650445E-009
  -83.159999999999997         -4.7983697015752114E-009
  -83.144999999999996         -4.6366452899349042E-009
  -83.129999999999995         -4.4622918693448810E-009
  -83.114999999999995         -4.2758996343650324E-009
  -83.099999999999994         -4.0781085175467524E-009
  -83.084999999999994         -3.8696024162732101E-009
  -83.069999999999993         -3.6511063061794857E-009
  -83.055000000000007         -3.4233809120820524E-009
  -83.040000000000006         -3.1872198213989122E-009
  -83.025000000000006         -2.9434434889452632E-009
  -83.010000000000005         -2.6928950180860056E-009
  -82.995000000000005         -2.4364330553083846E-009
  -82.980000000000004         -2.1749264611514718E-009
  -82.965000000000003         -1.9092458725111783E-009
  -82.950000000000003         -1.6402573743690141E-009
  -82.935000000000002         -1.3688129518740766E-009
  -82.920000000000002         -1.0957424967372731E-009
  -82.905000000000001         -8.2184509198057754E-010
  -82.890000000000001         -5.4787979708592616E-010
  -82.875000000000000         -2.7455757112271328E-010
  -82.859999999999999         -2.5332559400875754E-012
  -82.844999999999999          2.6760132998404629E-010
  -82.829999999999998          5.3532323018856687E-010
  -82.814999999999998          8.0018264236869641E-010
  -82.799999999999997          1.0618057544320436E-009
  -82.784999999999997          1.3198955262083700E-009
  -82.769999999999996          1.5742308567823216E-009
  -82.754999999999995          1.8246630872909009E-009
  -82.739999999999995          2.0711112824756128E-009
  -82.724999999999994          2.3135555693443166E-009
  -82.709999999999994          2.5520279223201214E-009
  -82.694999999999993          2.7866025043010723E-009
  -82.680000000000007          3.0173845644299035E-009
  -82.665000000000006          3.2444973374623487E-009
  -82.650000000000006          3.4680702754030790E-009
  -82.635000000000005          3.6882255027848032E-009
  -82.620000000000005          3.9050660483042066E-009
  -82.605000000000004          4.1186623001010503E-009
  -82.590000000000003          4.3290424578401598E-009
  -82.575000000000003          4.5361829847934132E-009
  -82.560000000000002          4.7399981717433093E-009
  -82.545000000000002          4.9403361401800794E-009
  -82.530000000000001          5.1369735132311689E-009
  -82.515000000000001          5.3296123070367685E-009
  -82.500000000000000          5.5178799307498139E-009
  -82.484999999999999          5.7013318510712452E-009
  -82.469999999999999          5.8794547008744757E-009
  -82.454999999999998          6.0516720523651202E-009
  -82.439999999999998          6.2173528547759815E-009
  -82.424999999999997          6.3758198720620385E-009
  -82.409999999999997          6.5263612292199014E-009
  -82.394999999999996          6.6682428467856880E-009
  -82.379999999999995          6.8007204312436897E-009
  -82.364999999999995          6.9230559063271357E-009
  -82.349999999999994          7.0345294034268591E-009
  -82.334999999999994          7.1344570251596906E-009
  -82.319999999999993          7.2222041680447546E-009
  -82.305000000000007          7.2972006215366036E-009
  -82.290000000000006          7.3589561111475632E-009
  -82.275000000000006          7.4070736211240273E-009
  -82.260000000000005          7.4412618289443344E-009
  -82.245000000000005          7.4613462075490133E-009
  -82.230000000000004          7.4672801275710299E-009
  -82.215000000000003          7.4591532950307737E-009
  -82.200000000000003          7.4371957481389472E-009
  -82.185000000000002          7.4017827422778737E-009
  -82.170000000000002          7.3534356381799171E-009
  -82.155000000000001          7.2928219019274820E-009
  -82.140000000000001          7.2207479995256563E-009
  -82.125000000000000          7.1381545119209022E-009
  -82.109999999999999          7.0461059209492305E-009
  -82.094999999999999          6.9457768425706945E-009
  -82.079999999999998          6.8384373719254654E-009
  -82.064999999999998          6.7254362079438579E-009
  -82.049999999999997          6.6081806693318867E-009
  -82.034999999999997          6.4881158223784041E-009
  -82.019999999999996          6.3667031646730265E-009
  -82.004999999999995          6.2453966442888031E-009
  -81.989999999999995          6.1256204553217231E-009
  -81.974999999999994          6.0087481656978525E-009
  -81.960000000000008          5.8960800686236325E-009
  -81.944999999999993          5.7888245308390651E-009
  -81.930000000000007          5.6880811172277390E-009
  -81.915000000000006          5.5948254917836948E-009
  -81.900000000000006          5.5098974272027590E-009
  -81.885000000000005          5.4339936994551863E-009
  -81.870000000000005          5.3676614264475120E-009
  -81.855000000000004          5.3112980680225519E-009
  -81.840000000000003          5.2651509818701925E-009