  -90.000000000000000          0.0000000000000000     
  -89.984999999999999          0.0000000000000000     
  -89.969999999999999          0.0000000000000000     
  -89.954999999999998          0.0000000000000000     
  -89.939999999999998          0.0000000000000000     
  -89.924999999999997          0.0000000000000000     
  -89.909999999999997          0.0000000000000000     
  -89.894999999999996          0.0000000000000000     
  -89.879999999999995          0.0000000000000000     
  -89.864999999999995          0.0000000000000000     
  -89.849999999999994          0.0000000000000000     
  -89.834999999999994          0.0000000000000000     
  -89.819999999999993          0.0000000000000000     
  -89.805000000000007          0.0000000000000000     
  -89.790000000000006          0.0000000000000000     
  -89.775000000000006          0.0000000000000000     
  -89.760000000000005          0.0000000000000000     
  -89.745000000000005          0.0000000000000000     
  -89.730000000000004          0.0000000000000000     
  -89.715000000000003          0.0000000000000000     
  -89.700000000000003          0.0000000000000000     
  -89.685000000000002          0.0000000000000000     
  -89.670000000000002          0.0000000000000000     
  -89.655000000000001          0.0000000000000000     
  -89.640000000000001          0.0000000000000000     
  -89.625000000000000          0.0000000000000000     
  -89.609999999999999          0.0000000000000000     
  -89.594999999999999          0.0000000000000000     
  -89.579999999999998          0.0000000000000000     
  -89.564999999999998          0.0000000000000000     
  -89.549999999999997          0.0000000000000000     
  -89.534999999999997          0.0000000000000000     
  -89.519999999999996          0.0000000000000000     
  -89.504999999999995          0.0000000000000000     
  -89.489999999999995          0.0000000000000000     
  -89.474999999999994          0.0000000000000000     
  -89.459999999999994          0.0000000000000000     
  -89.444999999999993          0.0000000000000000     
  -89.430000000000007          0.0000000000000000     
  -89.415000000000006          0.0000000000000000     
  -89.400000000000006          0.0000000000000000     
  -89.385000000000005          0.0000000000000000     
  -89.370000000000005          0.0000000000000000     
  -89.355000000000004          0.0000000000000000     
  -89.340000000000003          0.0000000000000000     
  -89.325000000000003          0.0000000000000000     
  -89.310000000000002          0.0000000000000000     
  -89.295000000000002          0.0000000000000000     
  -89.280000000000001          0.0000000000000000     
  -89.265000000000001          0.0000000000000000     
  -89.250000000000000          0.0000000000000000     
  -89.234999999999999          0.0000000000000000     
  -89.219999999999999          0.0000000000000000     
  -89.204999999999998          0.0000000000000000     
  -89.189999999999998          0.0000000000000000     
  -89.174999999999997          0.0000000000000000     
  -89.159999999999997          0.0000000000000000     
  -89.144999999999996          0.0000000000000000     
  -89.129999999999995          0.0000000000000000     
  -89.114999999999995          0.0000000000000000     
  -89.099999999999994          0.0000000000000000     
  -89.084999999999994          0.0000000000000000     
  -89.069999999999993          0.0000000000000000     
  -89.055000000000007          0.0000000000000000     
  -89.040000000000006          0.0000000000000000     
  -89.025000000000006          0.0000000000000000     
  -89.010000000000005          0.0000000000000000     
  -88.995000000000005          0.0000000000000000     
  -88.980000000000004          0.0000000000000000     
  -88.965000000000003          0.0000000000000000     
  -88.950000000000003          0.0000000000000000     
  -88.935000000000002          0.0000000000000000     
  -88.920000000000002          0.0000000000000000     
  -88.905000000000001          0.0000000000000000     
  -88.890000000000001          0.0000000000000000     
  -88.875000000000000          0.0000000000000000     
  -88.859999999999999          0.0000000000000000     
  -88.844999999999999          0.0000000000000000     
  -88.829999999999998          0.0000000000000000     
  -88.814999999999998          0.0000000000000000     
  -88.799999999999997          0.0000000000000000     
  -88.784999999999997          0.0000000000000000     
  -88.769999999999996          0.0000000000000000     
  -88.754999999999995          0.0000000000000000     
  -88.739999999999995          0.0000000000000000     
  -88.724999999999994          0.0000000000000000     
  -88.709999999999994          0.0000000000000000     
  -88.694999999999993          0.0000000000000000     
  -88.680000000000007          0.0000000000000000     
  -88.665000000000006          0.0000000000000000     
  -88.650000000000006          0.0000000000000000     
  -88.635000000000005          0.0000000000000000     
  -88.620000000000005          0.0000000000000000     
  -88.605000000000004          0.0000000000000000     
  -88.590000000000003          0.0000000000000000     
  -88.575000000000003          0.0000000000000000     
  -88.560000000000002          0.0000000000000000     
  -88.545000000000002          0.0000000000000000     
  -88.530000000000001          0.0000000000000000     
  -88.515000000000001          0.0000000000000000     
  -88.500000000000000          0.0000000000000000     
  -88.484999999999999          0.0000000000000000     
  -88.469999999999999          0.0000000000000000     
  -88.454999999999998          0.0000000000000000     
  -88.439999999999998          0.0000000000000000     
  -88.424999999999997          0.0000000000000000     
  -88.409999999999997          0.0000000000000000     
  -88.394999999999996          0.0000000000000000     
  -88.379999999999995          0.0000000000000000     
  -88.364999999999995          0.0000000000000000     
  -88.349999999999994          0.0000000000000000     
  -88.334999999999994          0.0000000000000000     
  -88.319999999999993          0.0000000000000000     
  -88.305000000000007          0.0000000000000000     
  -88.290000000000006          0.0000000000000000     
  -88.275000000000006          0.0000000000000000     
  -88.260000000000005          0.0000000000000000     
  -88.245000000000005          0.0000000000000000     
  -88.230000000000004          0.0000000000000000     
  -88.215000000000003          0.0000000000000000     
  -88.200000000000003          0.0000000000000000     
  -88.185000000000002          0.0000000000000000     
  -88.170000000000002          0.0000000000000000     
  -88.155000000000001          0.0000000000000000     
  -88.140000000000001          0.0000000000000000     
  -88.125000000000000          0.0000000000000000     
  -88.109999999999999          0.0000000000000000     
  -88.094999999999999          0.0000000000000000     
  -88.079999999999998          0.0000000000000000     
  -88.064999999999998          0.0000000000000000     
  -88.049999999999997          0.0000000000000000     
  -88.034999999999997          0.0000000000000000     
  -88.019999999999996          0.0000000000000000     
  -88.004999999999995          0.0000000000000000     
  -87.989999999999995          0.0000000000000000     
  -87.974999999999994          0.0000000000000000     
  -87.959999999999994          0.0000000000000000     
  -87.944999999999993          0.0000000000000000     
  -87.930000000000007          0.0000000000000000     
  -87.915000000000006          0.0000000000000000     
  -87.900000000000006          0.0000000000000000     
  -87.885000000000005          0.0000000000000000     
  -87.870000000000005          0.0000000000000000     
  -87.855000000000004          0.0000000000000000     
  -87.840000000000003          0.0000000000000000     
  -87.825000000000003          0.0000000000000000     
  -87.810000000000002          0.0000000000000000     
  -87.795000000000002          0.0000000000000000     
  -87.780000000000001          0.0000000000000000     
  -87.765000000000001          0.0000000000000000     
  -87.750000000000000          0.0000000000000000     
  -87.734999999999999          0.0000000000000000     
  -87.719999999999999          0.0000000000000000     
  -87.704999999999998          0.0000000000000000     
  -87.689999999999998          0.0000000000000000     
  -87.674999999999997          0.0000000000000000     
  -87.659999999999997          0.0000000000000000     
  -87.644999999999996          0.0000000000000000     
  -87.629999999999995          0.0000000000000000     
  -87.614999999999995          0.0000000000000000     
  -87.599999999999994          0.0000000000000000     
  -87.584999999999994          0.0000000000000000     
  -87.569999999999993          0.0000000000000000     
  -87.555000000000007          0.0000000000000000     
  -87.540000000000006          0.0000000000000000     
  -87.525000000000006          0.0000000000000000     
  -87.510000000000005          0.0000000000000000     
  -87.495000000000005          0.0000000000000000     
  -87.480000000000004          0.0000000000000000     
  -87.465000000000003          0.0000000000000000     
  -87.450000000000003          0.0000000000000000     
  -87.435000000000002          0.0000000000000000     
  -87.420000000000002          0.0000000000000000     
  -87.405000000000001          0.0000000000000000     
  -87.390000000000001          0.0000000000000000     
  -87.375000000000000          0.0000000000000000     
  -87.359999999999999          0.0000000000000000     
  -87.344999999999999          0.0000000000000000     
  -87.329999999999998          0.0000000000000000     
  -87.314999999999998          0.0000000000000000     
  -87.299999999999997          0.0000000000000000     
  -87.284999999999997          0.0000000000000000     
  -87.269999999999996          0.0000000000000000     
  -87.254999999999995          0.0000000000000000     
  -87.239999999999995          0.0000000000000000     
  -87.224999999999994          0.0000000000000000     
  -87.209999999999994          0.0000000000000000     
  -87.194999999999993          0.0000000000000000     
  -87.180000000000007          0.0000000000000000     
  -87.165000000000006          0.0000000000000000     
  -87.150000000000006          0.0000000000000000     
  -87.135000000000005          0.0000000000000000     
  -87.120000000000005          0.0000000000000000     
  -87.105000000000004          0.0000000000000000     
  -87.090000000000003          0.0000000000000000     
  -87.075000000000003          0.0000000000000000     
  -87.060000000000002          0.0000000000000000     
  -87.045000000000002          0.0000000000000000     
  -87.030000000000001          0.0000000000000000     
  -87.015000000000001          0.0000000000000000     
  -87.000000000000000          0.0000000000000000     
  -86.984999999999999          0.0000000000000000     
  -86.969999999999999          0.0000000000000000     
  -86.954999999999998          0.0000000000000000     
  -86.939999999999998          0.0000000000000000     
  -86.924999999999997          0.0000000000000000     
  -86.909999999999997          0.0000000000000000     
  -86.894999999999996          0.0000000000000000     
  -86.879999999999995         -1.1799608495474764E-038
  -86.864999999999995         -2.9387950118509133E-038
  -86.849999999999994         -5.3354382977228837E-038
  -86.834999999999994         -8.4231221121873874E-038
  -86.819999999999993         -1.2247107554863037E-037
  -86.805000000000007         -1.6841789216296993E-037
  -86.790000000000006         -2.2228174242027642E-037
  -86.775000000000006         -2.8411252375626750E-037
  -86.760000000000005         -3.5377234840205362E-037
  -86.745000000000005         -4.3091116079085872E-037
  -86.730000000000004         -5.1493337544418162E-037
  -86.715000000000003         -6.0497440241992162E-037
  -86.700000000000003         -7.0041058542874016E-037
  -86.685000000000002         -7.9929687736060355E-037
  -86.670000000000002         -9.0016704918554402E-037
  -86.655000000000001         -1.0037975771982255E-036
  -86.640000000000001         -1.1088014225474962E-036
  -86.625000000000000         -1.2107416034590196E-036
  -86.609999999999999         -1.3391268199399759E-036
  -86.594999999999999         -1.4979259079737397E-036
  -86.579999999999998         -1.6956947251471944E-036
  -86.564999999999998         -1.8915929321850403E-036
  -86.549999999999997         -2.0792641495699983E-036
  -86.534999999999997         -2.2489659225963704E-036
  -86.519999999999996         -2.3992538152279058E-036
  -86.504999999999995         -2.4816003011256505E-036
  -86.489999999999995         -2.4958170457759993E-036
  -86.474999999999994         -2.4958170457759993E-036
  -86.459999999999994         -2.4625609373635833E-036
  -86.444999999999993         -2.3903716008338751E-036
  -86.430000000000007         -2.2753630673894864E-036
  -86.415000000000006         -2.1137447910532554E-036
  -86.400000000000006         -1.8824818465154283E-036
  -86.385000000000005         -1.5301207065604392E-036
  -86.370000000000005         -1.0325154516144669E-036
  -86.355000000000004         -3.6354637155955607E-037
  -86.340000000000003          5.8406191739539749E-037
  -86.325000000000003          1.8705353399019384E-036
  -86.310000000000002          3.5567249118305773E-036
  -86.295000000000002          5.6363350588069990E-036
  -86.280000000000001          8.1356994299883041E-036
  -86.265000000000001          1.1074224372388785E-035
  -86.250000000000000          1.4504261499804600E-035
  -86.234999999999999          1.8244468710705147E-035
  -86.219999999999999          2.2221552669578586E-035
  -86.204999999999998          2.6347239375602302E-035
  -86.189999999999998          3.0589565771324431E-035
  -86.174999999999997          3.4873410420887737E-035
  -86.159999999999997          3.9114367893745261E-035
  -86.144999999999996          4.3216912054737163E-035
  -86.129999999999995          4.7076927279953575E-035
  -86.114999999999995          5.0590458657602906E-035
  -86.099999999999994          5.3636613366570925E-035
  -86.084999999999994          5.6078857852803994E-035
  -86.069999999999993          5.7713156602713096E-035
  -86.055000000000007          5.8421942962060472E-035
  -86.040000000000006          5.8161933713563159E-035
  -86.025000000000006          5.6827540995513507E-035
  -86.010000000000005          5.4324943369149109E-035
  -85.995000000000005          5.0647689390864864E-035
  -85.980000000000004          4.5698714680940287E-035
  -85.965000000000003          3.9453077292590717E-035
  -85.950000000000003          3.1802081306535409E-035
  -85.935000000000002          2.2640896503910013E-035
  -85.920000000000002          1.1896526579635576E-035
  -85.905000000000001         -4.9230686697964624E-037
  -85.890000000000001         -1.4593775279825347E-035
  -85.875000000000000         -3.0461217055865873E-035
  -85.859999999999999         -4.8151761317408939E-035
  -85.844999999999999         -6.7707326663661786E-035
  -85.829999999999998         -8.9114639995570327E-035
  -85.814999999999998         -1.1238563992763510E-034
  -85.799999999999997         -1.3752056752803353E-034
  -85.784999999999997         -1.6450766785325738E-034
  -85.769999999999996         -1.9329599516181301E-034
  -85.754999999999995         -2.2383391494598559E-034
  -85.739999999999995         -2.5604510042903081E-034
  -85.724999999999994         -2.8983989720782443E-034
  -85.709999999999994         -3.2508516677181140E-034
  -85.694999999999993         -3.6158366943411840E-034
  -85.680000000000007         -3.9912918858812266E-034
  -85.665000000000006         -4.3744484021290783E-034
  -85.650000000000006         -4.7618752689482766E-034
  -85.635000000000005         -5.1493200436892258E-034
  -85.620000000000005         -5.5316734585231759E-034
  -85.605000000000004         -5.9027187095377117E-034
  -85.590000000000003         -6.2553514027500511E-034
  -85.575000000000003         -6.5812521605632416E-034
  -85.560000000000002         -6.8700816836423358E-034
  -85.545000000000002         -7.1102714545363116E-034
  -85.530000000000001         -7.2886334368194005E-034
  -85.515000000000001         -7.3902080873449467E-034
  -85.500000000000000         -7.3982501217435020E-034
  -85.484999999999999         -7.2941885659819974E-034
  -85.469999999999999         -7.0576423683980900E-034
  -85.454999999999998         -6.6665154494386862E-034
  -85.439999999999998         -6.0970237931313087E-034
  -85.424999999999997         -5.3240191672080532E-034
  -85.409999999999997         -4.3212531501570427E-034
  -85.394999999999996         -3.0615927150496582E-034
  -85.379999999999995         -1.5173181209312015E-034
  -85.364999999999995          3.3862832532150417E-035
  -85.349999999999994          2.5326579097330536E-034
  -85.334999999999994          5.0895755433086830E-034
  -85.319999999999993          8.0318544338061771E-034
  -85.305000000000007          1.1378235221337757E-033
  -85.290000000000006          1.5143148935769689E-033
  -85.275000000000006          1.9335366785340023E-033
  -85.260000000000005          2.3956753030620766E-033
  -85.245000000000005          2.9000872758396128E-033
  -85.230000000000004          3.4451638226449152E-033
  -85.215000000000003          4.0281899188695689E-033
  -85.200000000000003          4.6452113117200032E-033
  -85.185000000000002          5.2908640735366221E-033
  -85.170000000000002          5.9582722970510845E-033
  -85.155000000000001          6.6389165869558059E-033
  -85.140000000000001          7.3225245919925379E-033
  -85.125000000000000          7.9969821081920877E-033
  -85.109999999999999          8.6482713654208995E-033
  -85.094999999999999          9.2604342931825914E-033
  -85.079999999999998          9.8155717859339864E-033
  -85.064999999999998          1.0293886314755329E-032
  -85.049999999999997          1.0673766416006752E-032
  -85.034999999999997          1.0931921138494650E-032
  -85.019999999999996          1.1043571795987659E-032
  -85.004999999999995          1.0982697351662388E-032
  -84.989999999999995          1.0722344454738453E-032
  -84.974999999999994          1.0235001394618825E-032
  -84.959999999999994          9.4930352378515515E-033
  -84.944999999999993          8.4691958213326629E-033
  -84.930000000000007          7.1371843976983878E-033
  -84.915000000000006          5.4722861982226877E-033
  -84.900000000000006          3.4520603010643957E-033
  -84.885000000000005          1.0570859783444931E-033
  -84.870000000000005         -1.7282428349766285E-033
  -84.855000000000004         -4.9148822054261135E-033
  -84.840000000000003         -8.5082699882379650E-033
  -84.825000000000003         -1.2507437686269701E-032
  -84.810000000000002         -1.6904108349923594E-032
  -84.795000000000002         -2.1681805221820962E-032
  -84.780000000000001         -2.6814965707935235E-032
  -84.765000000000001         -3.2268104572550966E-032
  -84.750000000000000         -3.7995010194001454E-032
  -84.734999999999999         -4.3938024574378865E-032
  -84.719999999999999         -5.0027399756377159E-032
  -84.704999999999998         -5.6180748279683079E-032
  -84.689999999999998         -6.2302675838991520E-032
  -84.674999999999997         -6.8284484471681944E-032
  -84.659999999999997         -7.4004134354251981E-032
  -84.644999999999996         -7.9326337841865494E-032
  -84.629999999999995         -8.4102923871601335E-032
  -84.614999999999995         -8.8173425709628752E-032
  -84.599999999999994         -9.1365986081857528E-032
  -84.584999999999994         -9.3498544423232305E-032
  -84.569999999999993         -9.4380388530275677E-032
  -84.555000000000007         -9.3814052984464761E-032
  -84.540000000000006         -9.1597676018404600E-032
  -84.525000000000006         -8.7527732540193824E-032
  -84.510000000000005         -8.1402278497832917E-032
  -84.495000000000005         -7.3024671318844572E-032
  -84.480000000000004         -6.2207813444880161E-032
  -84.465000000000003         -4.8778916022576439E-032
  -84.450000000000003         -3.2584841525380031E-032
  -84.435000000000002         -1.3497947429838962E-032
  -84.420000000000002          8.5774992586617051E-033
  -84.405000000000001          3.3698416711272755E-032
  -84.390000000000001          6.1875530579261471E-032
  -84.375000000000000          9.3065586343937440E-032
  -84.359999999999999          1.2716328616008988E-031
  -84.344999999999999          1.6399298178434717E-031
  -84.329999999999998          2.0330033738149364E-031
  -84.314999999999998          2.4474408343159857E-031
  -84.299999999999997          2.8788815855028092E-031
  -84.284999999999997          3.3219439791384724E-031
  -84.269999999999996          3.7701606804036211E-031
  -84.254999999999995          4.2159255355518247E-031
  -84.239999999999995          4.6504564262880898E-031
  -84.224999999999994          5.0637757565626370E-031
  -84.209999999999994          5.4447168002403947E-031
  -84.194999999999993          5.7809533235586405E-031
  -84.180000000000007          6.0590644724151662E-031
  -84.165000000000006          6.2646335138937468E-031
  -84.150000000000006          6.3823865445975380E-031
  -84.135000000000005          6.3963772783610248E-031
  -84.120000000000005          6.2902174431427834E-031
  -84.105000000000004          6.0473584294719375E-031
  -84.090000000000003          5.6514246606460520E-031
  -84.075000000000003          5.0866015058669041E-031
  -84.060000000000002          4.3380758555231719E-031
  -84.045000000000002          3.3925281831256878E-031
  -84.030000000000001          2.2386744482031684E-031
  -84.015000000000001          8.6784925904965712E-032
  -84.000000000000000         -7.2537234953860848E-032
  -83.984999999999999         -2.5425270425517408E-031
  -83.969999999999999         -4.5805996182051633E-031
  -83.954999999999998         -6.8313557973460831E-031
  -83.939999999999998         -9.2806915285555943E-031
  -83.924999999999997         -1.1908008859423108E-030
  -83.909999999999997         -1.4685650288664737E-030
  -83.894999999999996         -1.7578400826716288E-030
  -83.879999999999995         -2.0543095380620086E-030
  -83.864999999999995         -2.3528333814194334E-030
  -83.849999999999994         -2.6474367160179958E-030
  -83.834999999999994         -2.9313131474477904E-030
  -83.819999999999993         -3.1968496100556037E-030
  -83.805000000000007         -3.4356731986398508E-030
  -83.790000000000006         -3.6387215100325281E-030
  -83.775000000000006         -3.7963404442292025E-030
  -83.760000000000005         -3.8984079604342652E-030
  -83.745000000000005         -3.9344898065525294E-030
  -83.730000000000004         -3.8940212035960926E-030
  -83.715000000000003         -3.7665201273793504E-030
  -83.700000000000003         -3.5418272974456602E-030
  -83.685000000000002         -3.2103747540166169E-030
  -83.670000000000002         -2.7634777567492494E-030
  -83.655000000000001         -2.1936471841146947E-030
  -83.640000000000001         -1.4949210228051304E-030
  -83.625000000000000         -6.6320441473957997E-031
  -83.609999999999999          3.0338218501926038E-031
  -83.594999999999999          1.4041572483566709E-030
  -83.579999999999998          2.6355410893458665E-030
  -83.564999999999998          3.9907367410416355E-030
  -83.549999999999997          5.4594373749364201E-030
  -83.534999999999997          7.0275686561085029E-030
  -83.519999999999996          8.6770802575439453E-030
  -83.504999999999995          1.0385788626012221E-029
  -83.489999999999995          1.2127291970314766E-029
  -83.474999999999994          1.3870953710324517E-029
  -83.459999999999994          1.5581973947042442E-029
  -83.444999999999993          1.7221558733784060E-029
  -83.430000000000007          1.8747178120699333E-029
  -83.415000000000006          2.0112943817597696E-029
  -83.400000000000006          2.1270086162535850E-029
  -83.385000000000005          2.2167549956394304E-029
  -83.370000000000005          2.2752709163442677E-029
  -83.355000000000004          2.2972182422300524E-029
  -83.340000000000003          2.2772774946050762E-029
  -83.325000000000003          2.2102509195686470E-029
  -83.310000000000002          2.0911763887117066E-029
  -83.295000000000002          1.9154486725180159E-029
  -83.280000000000001          1.6789492901721243E-029
  -83.265000000000001          1.3781813246554769E-029
  -83.250000000000000          1.0104079241928055E-029
  -83.234999999999999          5.7379362488496210E-030
  -83.219999999999999          6.7544629502768747E-031
  -83.204999999999998         -5.0795285093382324E-030
  -83.189999999999998         -1.1509997568901353E-029
  -83.174999999999997         -1.8584585999042748E-029
  -83.159999999999997         -2.6256389506294549E-029
  -83.144999999999996         -3.4461961488367734E-029
  -83.129999999999995         -4.3120452008050036E-029
  -83.114999999999995         -5.2132949516369478E-029
  -83.099999999999994         -6.1382053536887968E-029
  -83.084999999999994         -7.0731667026379167E-029
  -83.069999999999993         -8.0027089662060170E-029
  -83.055000000000007         -8.9095421083173613E-029
  -83.040000000000006         -9.7746283114716818E-029
  -83.025000000000006         -1.0577291514009766E-028
  -83.010000000000005         -1.1295363660418610E-028
  -82.995000000000005         -1.1905374285060316E-028
  -82.980000000000004         -1.2382778614499885E-028
  -82.965000000000003         -1.2702235021787827E-028
  -82.950000000000003         -1.2837926416019629E-028
  -82.935000000000002         -1.2763923761612765E-028
  -82.920000000000002         -1.2454608579188238E-028
  -82.905000000000001         -1.1885129150226161E-028
  -82.890000000000001         -1.1031916907032095E-028
  -82.875000000000000         -9.8732401375960616E-029
  -82.859999999999999         -8.3898016257284075E-029
  -82.844999999999999         -6.5653850412973924E-029
  -82.829999999999998         -4.3875248027379698E-029
  -82.814999999999998         -1.8482174674249956E-029
  -82.799999999999997          1.0553507031512968E-029
  -82.784999999999997          4.3200588749329773E-029
  -82.769999999999996          7.9361036883449225E-029
  -82.754999999999995          1.1886259430362273E-028
  -82.739999999999995          1.6145165816589202E-028
  -82.724999999999994          2.0678652034987420E-028
  -82.709999999999994          2.5443113827909783E-028
  -82.694999999999993          3.0384994694721529E-028
  -82.680000000000007          3.5440341724206849E-028
  -82.665000000000006          4.0534508279133725E-028
  -82.650000000000006          4.5582009551508097E-028
  -82.635000000000005          5.0486549044110605E-028
  -82.620000000000005          5.5141276163626645E-028
  -82.605000000000004          5.9429267703132467E-028
  -82.590000000000003          6.3224298214072932E-028
  -82.575000000000003          6.6391870378781758E-028
  -82.560000000000002          6.8790616124516061E-028
  -82.545000000000002          7.0273996256632275E-028
  -82.530000000000001          7.0692385277750959E-028
  -82.515000000000001          6.9895507689136435E-028
  -82.500000000000000          6.7735283552189631E-028
  -82.484999999999999          6.4069011087681174E-028
  -82.469999999999999          5.8762920016498788E-028
  -82.454999999999998          5.1696086012259260E-028
  -82.439999999999998          4.2764624413762341E-028
  -82.424999999999997          3.1886143937987147E-028
  -82.409999999999997          1.9004400208320277E-028
  -82.394999999999996          4.0940822923207315E-029
  -82.379999999999995         -1.2834382704921957E-028
  -82.364999999999995         -3.1730081019768588E-028
  -82.349999999999994         -5.2497041757531024E-028
  -82.334999999999994         -7.4989996837328995E-028
  -82.319999999999993         -9.9010556215591173E-028
  -82.305000000000007         -1.2430399639787290E-027
  -82.290000000000006         -1.5055680006335225E-027
  -82.275000000000006         -1.7739511532087447E-027
  -82.260000000000005         -2.0438423089304222E-027
  -82.245000000000005         -2.3102937537714241E-027
  -82.230000000000004         -2.5677776836053702E-027
  -82.215000000000003         -2.8102227968755740E-027
  -82.200000000000003         -3.0310666798895307E-027
  -82.185000000000002         -3.2233261032618864E-027
  -82.170000000000002         -3.3796831109829530E-027
  -82.155000000000001         -3.4925934502745768E-027
  -82.140000000000001         -3.5544096385135851E-027
  -82.125000000000000         -3.5575234820476703E-027
  -82.109999999999999         -3.4945263135667639E-027
  -82.094999999999999         -3.3583838665419857E-027
  -82.079999999999998         -3.1426248237672002E-027
  -82.064999999999998         -2.8415428474101826E-027
  -82.049999999999997         -2.4504047720396066E-027
  -82.034999999999997         -1.9656647680348611E-027
  -82.019999999999996         -1.3851796605538318E-027
  -82.004999999999995         -7.0842049293729291E-028
  -81.989999999999995          6.3324323793147114E-029
  -81.974999999999994          9.2675960776207672E-028
  -81.960000000000008          1.8764129373660789E-027
  -81.944999999999993          2.9044891713405572E-027
  -81.930000000000007          4.0007566142629599E-027
  -81.915000000000006          5.1524684987963601E-027
  -81.900000000000006          6.3443275485784789E-027
  -81.885000000000005          7.5584977263943460E-027
  -81.870000000000005          8.7746677898644649E-027
  -81.855000000000004          9.9701710842873532E-027
  -81.840000000000003          1.1120166965240304E-026