  -90.000000000000000          0.0000000000000000     
  -89.984999999999999          0.0000000000000000     
  -89.969999999999999          0.0000000000000000     
  -89.954999999999998          0.0000000000000000     
  -89.939999999999998          0.0000000000000000     
  -89.924999999999997          0.0000000000000000     
  -89.909999999999997          0.0000000000000000     
  -89.894999999999996          0.0000000000000000     
  -89.879999999999995          0.0000000000000000     
  -89.864999999999995          0.0000000000000000     
  -89.849999999999994          0.0000000000000000     
  -89.834999999999994          0.0000000000000000     
  -89.819999999999993          0.0000000000000000     
  -89.805000000000007          0.0000000000000000     
  -89.790000000000006          0.0000000000000000     
  -89.775000000000006          0.0000000000000000     
  -89.760000000000005          0.0000000000000000     
  -89.745000000000005          0.0000000000000000     
  -89.730000000000004          0.0000000000000000     
  -89.715000000000003          2.8484518985574280E-038
  -89.700000000000003          2.0569559264334558E-037
  -89.685000000000002          7.9016148757042635E-037
  -89.670000000000002          2.5001435379690206E-036
  -89.655000000000001          7.0751874251447040E-036
  -89.640000000000001          1.8739879599518313E-035
  -89.625000000000000          4.6989548675218501E-035
  -89.609999999999999          1.1270210504739554E-034
  -89.594999999999999          2.6000112105590264E-034
  -89.579999999999998          5.7925234609878149E-034
  -89.564999999999998          1.2495019139466240E-033
  -89.549999999999997          2.6152747291979653E-033
  -89.534999999999997          5.3216488012167193E-033
  -89.519999999999996          1.0546146667757823E-032
  -89.504999999999995          2.0387496310121373E-032
  -89.489999999999995          3.8503261625202363E-032
  -89.474999999999994          7.1133906287962185E-032
  -89.459999999999994          1.2871490343834477E-031
  -89.444999999999993          2.2836660242831511E-031
  -89.430000000000007          3.9766945676453567E-031
  -89.415000000000006          6.8028768606098414E-031
  -89.400000000000006          1.1442023150452060E-030
  -89.385000000000005          1.8935637888921469E-030
  -89.370000000000005          3.0854770686485279E-030
  -89.355000000000004          4.9533819787718298E-030
  -89.340000000000003          7.8391028725263673E-030
  -89.325000000000003          1.2236067891720650E-029
  -89.310000000000002          1.8846640365264781E-029
  -89.295000000000002          2.8656886644572028E-029
  -89.280000000000001          4.3032430991060463E-029
  -89.265000000000001          6.3839028570784603E-029
  -89.250000000000000          9.3591360093599786E-029
  -89.234999999999999          1.3563261725731243E-028
  -89.219999999999999          1.9434604809647776E-028
  -89.204999999999998          2.7539710054318894E-028
  -89.189999999999998          3.8600075354042019E-028
  -89.174999999999997          5.3520350929707155E-028
  -89.159999999999997          7.3416155775724912E-028
  -89.144999999999996          9.9638601970455851E-028
  -89.129999999999995          1.3379133915621831E-027
  -89.114999999999995          1.7773431010267995E-027
  -89.099999999999994          2.3356617178129039E-027
  -89.084999999999994          3.0357484229913416E-027
  -89.069999999999993          3.9014294736831104E-027
  -89.055000000000007          4.9559138664620320E-027
  -89.040000000000006          6.2194009471778342E-027
  -89.025000000000006          7.7056202852180647E-027
  -89.010000000000005          9.4170070264044068E-027
  -88.995000000000005          1.1338189938664717E-026
  -88.980000000000004          1.3427409468200836E-026
  -88.965000000000003          1.5605474457187471E-026
  -88.950000000000003          1.7741826885066590E-026
  -88.935000000000002          1.9637271669550109E-026
  -88.920000000000002          2.1002973245018386E-026
  -88.905000000000001          2.1435341436045409E-026
  -88.890000000000001          2.0386526210650786E-026
  -88.875000000000000          1.7130370320370886E-026
  -88.859999999999999          1.0723864508723854E-026
  -88.844999999999999         -3.5586755733404028E-029
  -88.829999999999998         -1.6656485242718696E-026
  -88.814999999999998         -4.1002068602848547E-026
  -88.799999999999997         -7.5340129938253622E-026
  -88.784999999999997         -1.2239167083742683E-025
  -88.769999999999996         -1.8537554577948518E-025
  -88.754999999999995         -2.6804554321894702E-025
  -88.739999999999995         -3.7471543808244868E-025
  -88.724999999999994         -5.1026668932554612E-025
  -88.709999999999994         -6.8013250247723921E-025
  -88.694999999999993         -8.9025112660919225E-025
  -88.680000000000007         -1.1469800903641945E-024
  -88.665000000000006         -1.4569633775012437E-024
  -88.650000000000006         -1.8269411142021613E-024
  -88.635000000000005         -2.2634922032012642E-024
  -88.620000000000005         -2.7727021147366537E-024
  -88.605000000000004         -3.3597428181181849E-024
  -88.590000000000003         -4.0283612054304313E-024
  -88.575000000000003         -4.7802639772418387E-024
  -88.560000000000002         -5.6144007652571053E-024
  -88.545000000000002         -6.5261374060885102E-024
  -88.530000000000001         -7.5063270575400157E-024
  -88.515000000000001         -8.5402846794304802E-024
  -88.500000000000000         -9.6066755285782014E-024
  -88.484999999999999         -1.0676341728204400E-023
  -88.469999999999999         -1.1711091366443707E-023
  -88.454999999999998         -1.2662483650550119E-023
  -88.439999999999998         -1.3470659815035467E-023
  -88.424999999999997         -1.4063269481977406E-023
  -88.409999999999997         -1.4354546904899402E-023
  -88.394999999999996         -1.4244628604087717E-023
  -88.379999999999995         -1.3619166035886944E-023
  -88.364999999999995         -1.2349348469666259E-023
  -88.349999999999994         -1.0292396814746092E-023
  -88.334999999999994         -7.2926443598382742E-024
  -88.319999999999993         -3.1832929746362909E-024
  -88.305000000000007          2.2110662823773125E-024
  -88.290000000000006          9.0710847278656372E-024
  -88.275000000000006          1.7578365833604386E-023
  -88.260000000000005          2.7910201749307003E-023
  -88.245000000000005          4.0233291406021170E-023
  -88.230000000000004          5.4696466035291316E-023
  -88.215000000000003          7.1422418751428275E-023
  -88.200000000000003          9.0498508011076222E-023
  -88.185000000000002          1.1196677694503982E-022
  -88.170000000000002          1.3581333529049992E-022
  -88.155000000000001          1.6195720805325742E-022
  -88.140000000000001          1.9023912106110457E-022
  -88.125000000000000          2.2041031176074534E-022
  -88.109999999999999          2.5212191430545480E-022
  -88.094999999999999          2.8491512719275642E-022
  -88.079999999999998          3.1821273143196911E-022
  -88.064999999999998          3.5131252722147582E-022
  -88.049999999999997          3.8338281535345841E-022
  -88.034999999999997          4.1346093308805759E-022
  -88.019999999999996          4.4045489498405574E-022
  -88.004999999999995          4.6314869404416000E-022
  -87.989999999999995          4.8021191950715877E-022
  -87.974999999999994          4.9021351458210872E-022
  -87.959999999999994          4.9164063337941319E-022
  -87.944999999999993          4.8292171351457812E-022
  -87.930000000000007          4.6245495083144692E-022
  -87.915000000000006          4.2864106552875966E-022
  -87.900000000000006          3.7992018298519406E-022
  -87.885000000000005          3.1481285452643690E-022
  -87.870000000000005          2.3196398120038676E-022
  -87.855000000000004          1.3018879490159756E-022
  -87.840000000000003          8.5202058028098898E-024
  -87.825000000000003         -1.3374410895989452E-022
  -87.810000000000002         -2.9699585669128135E-022
  -87.795000000000002         -4.8127346122832210E-022
  -87.780000000000001         -6.8622341191128190E-022
  -87.765000000000001         -9.1106785402228937E-022
  -87.750000000000000         -1.1545794462105655E-021
  -87.734999999999999         -1.4150649016984969E-021
  -87.719999999999999         -1.6903586269072964E-021
  -87.704999999999998         -1.9778274167571109E-021
  -87.689999999999998         -2.2743864085899680E-021
  -87.674999999999997         -2.5765276578672078E-021
  -87.659999999999997         -2.8803594171316744E-021
  -87.644999999999996         -3.1816577338218056E-021
  -87.629999999999995         -3.4759280445311121E-021
  -87.614999999999995         -3.7584748472033268E-021
  -87.599999999999994         -4.0244768259341305E-021
  -87.584999999999994         -4.2690690439665890E-021
  -87.569999999999993         -4.4874225113574973E-021
  -87.555000000000007         -4.6748221370565897E-021
  -87.540000000000006         -4.8267402381211321E-021
  -87.525000000000006         -4.9388963164398760E-021
  -87.510000000000005         -5.0073075458309925E-021
  -87.495000000000005         -5.0283182565072662E-021
  -87.480000000000004         -4.9986108402892485E-021
  -87.465000000000003         -4.9151932298049702E-021
  -87.450000000000003         -4.7753613360890786E-021
  -87.435000000000002         -4.5766372523749658E-021
  -87.420000000000002         -4.3166799929056214E-021
  -87.405000000000001         -3.9931768446988781E-021
  -87.390000000000001         -3.6037104855056490E-021
  -87.375000000000000         -3.1456149946066197E-021
  -87.359999999999999         -2.6158217661893526E-021
  -87.344999999999999         -2.0107062305189598E-021
  -87.329999999999998         -1.3259430569412272E-021
  -87.314999999999998         -5.5638357120883066E-022
  -87.299999999999997          3.0403534848688605E-022
  -87.284999999999997          1.2623360788153280E-021
  -87.269999999999996          2.3264870741740881E-021
  -87.254999999999995          3.5053167861869695E-021
  -87.239999999999995          4.8083471824985479E-021
  -87.224999999999994          6.2455294720600350E-021
  -87.209999999999994          7.8268798912047814E-021
  -87.194999999999993          9.5620083561019642E-021
  -87.180000000000007          1.1459533216317333E-020
  -87.165000000000006          1.3526392610797391E-020
  -87.150000000000006          1.5767054445760918E-020
  -87.135000000000005          1.8182635091917432E-020
  -87.120000000000005          2.0769949419232466E-020
  -87.105000000000004          2.3520518826427350E-020
  -87.090000000000003          2.6419549382117030E-020
  -87.075000000000003          2.9444951163419791E-020
  -87.060000000000002          3.2566388290722532E-020
  -87.045000000000002          3.5744458209416746E-020
  -87.030000000000001          3.8930017990063686E-020
  -87.015000000000001          4.2063694805492798E-020
  -87.000000000000000          4.5075692060345652E-020
  -86.984999999999999          4.7885863708084103E-020
  -86.969999999999999          5.0404153690690708E-020
  -86.954999999999998          5.2531442506326886E-020
  -86.939999999999998          5.4160820291994425E-020
  -86.924999999999997          5.5179299345897412E-020
  -86.909999999999997          5.5470021019467123E-020
  -86.894999999999996          5.4914898817913079E-020
  -86.879999999999995          5.3397749408088525E-020
  -86.864999999999995          5.0807798442570979E-020
  -86.849999999999994          4.7043577355829179E-020
  -86.834999999999994          4.2017098041377066E-020
  -86.819999999999993          3.5658211705861022E-020
  -86.805000000000007          2.7919071120723681E-020
  -86.790000000000006          1.8778531481556658E-020
  -86.775000000000006          8.2463614359650347E-021
  -86.760000000000005         -3.6328912203180178E-021
  -86.745000000000005         -1.6776550835199461E-020
  -86.730000000000004         -3.1061158682771838E-020
  -86.715000000000003         -4.6320663505723314E-020
  -86.700000000000003         -6.2345649668584458E-020
  -86.685000000000002         -7.8883704299904421E-020
  -86.670000000000002         -9.5641142739309932E-020
  -86.655000000000001         -1.1228607169071116E-019
  -86.640000000000001         -1.2845303241972452E-019
  -86.625000000000000         -1.4374904951190197E-019
  -86.609999999999999         -1.5776126936870005E-019
  -86.594999999999999         -1.7006603334482383E-019
  -86.579999999999998         -1.8023930797876330E-019
  -86.564999999999998         -1.8786822674727795E-019
  -86.549999999999997         -1.9256367872034400E-019
  -86.534999999999997         -1.9397358222504650E-019
  -86.519999999999996         -1.9179641700341278E-019
  -86.504999999999995         -1.8579488561721672E-019
  -86.489999999999995         -1.7580910956368828E-019
  -86.474999999999994         -1.6176895943651947E-019
  -86.459999999999994         -1.4370509261716302E-019
  -86.444999999999993         -1.2175829783081488E-019
  -86.430000000000007         -9.6186532643969407E-020
  -86.415000000000006         -6.7369376022560418E-020
  -86.400000000000006         -3.5809446817464711E-020
  -86.385000000000005         -2.1304723300835132E-021
  -86.370000000000005          3.2928266884017411E-020
  -86.355000000000004          6.8521244412586116E-020
  -86.340000000000003          1.0370990833620112E-019
  -86.325000000000003          1.3747961500481529E-019
  -86.310000000000002          1.6876031582321180E-019
  -86.295000000000002          1.9645052287054825E-019
  -86.280000000000001          2.1944426981844711E-019
  -86.265000000000001          2.3666040575690741E-019
  -86.250000000000000          2.4707373078954919E-019
  -86.234999999999999          2.4974702343295573E-019
  -86.219999999999999          2.4386318433828947E-019
  -86.204999999999998          2.2875666915456909E-019
  -86.189999999999998          2.0394306023556822E-019
  -86.174999999999997          1.6914585953684394E-019
  -86.159999999999997          1.2431970137167654E-019
  -86.144999999999996          6.9668750717350304E-020
  -86.129999999999995          5.6596743603547349E-021
  -86.114999999999995         -6.6971573233756303E-020
  -86.099999999999994         -1.4721975719050669E-019
  -86.084999999999994         -2.3381756693732165E-019
  -86.069999999999993         -3.2525013104223542E-019
  -86.055000000000007         -4.1977697102355693E-019
  -86.040000000000006         -5.1546075233850455E-019
  -86.025000000000006         -6.1020271097787813E-019
  -86.010000000000005         -7.0178380570153345E-019
  -85.995000000000005         -7.8791041976722582E-019
  -85.980000000000004         -8.6626365572523940E-019
  -85.965000000000003         -9.3455051721878891E-019
  -85.950000000000003         -9.9055581456745734E-019
  -85.935000000000002         -1.0321925710857734E-018
  -85.920000000000002         -1.0575498961611630E-018
  -85.905000000000001         -1.0649356884530725E-018
  -85.890000000000001         -1.0529140658156862E-018
  -85.875000000000000         -1.0203341098242132E-018
  -85.859999999999999         -9.6635064868777751E-019
  -85.844999999999999         -8.9043521739253427E-019
  -85.829999999999998         -7.9237574750894021E-019
  -85.814999999999998         -6.7226726140986234E-019
  -85.799999999999997         -5.3049124445405248E-019
  -85.784999999999997         -3.6768620252621913E-019
  -85.769999999999996         -1.8470972805112372E-019
  -85.754999999999995          1.7405710548338403E-020
  -85.739999999999995          2.3750126069896171E-019
  -85.724999999999994          4.7434206937758811E-019
  -85.709999999999994          7.2666622570774108E-019
  -85.694999999999993          9.9322946910238187E-019
  -85.680000000000007          1.2728428825273303E-018
  -85.665000000000006          1.5643987160460132E-018
  -85.650000000000006          1.8668835700104763E-018
  -85.635000000000005          2.1793737938692277E-018
  -85.620000000000005          2.5010130488931219E-018
  -85.605000000000004          2.8309677438198585E-018
  -85.590000000000003          3.1683625147662033E-018
  -85.575000000000003          3.5121927508782107E-018
  -85.560000000000002          3.8612158200806729E-018
  -85.545000000000002          4.2138255444191650E-018
  -85.530000000000001          4.5679101317898391E-018
  -85.515000000000001          4.9206989407309489E-018
  -85.500000000000000          5.2686040753355457E-018
  -85.484999999999999          5.6070636345253994E-018
  -85.469999999999999          5.9303928195407394E-018
  -85.454999999999998          6.2316544801743897E-018
  -85.439999999999998          6.5025553036048937E-018
  -85.424999999999997          6.7333767448153659E-018
  -85.409999999999997          6.9129535198975654E-018
  -85.394999999999996          7.0287050389151734E-018
  -85.379999999999995          7.0667280501323984E-018
  -85.364999999999995          7.0119629033171001E-018
  -85.349999999999994          6.8484317777572042E-018
  -85.334999999999994          6.5595571467965354E-018
  -85.319999999999993          6.1285604788900682E-018
  -85.305000000000007          5.5389391072270634E-018
  -85.290000000000006          4.7750191999705599E-018
  -85.275000000000006          3.8225749049458707E-018
  -85.260000000000005          2.6695043629961920E-018
  -85.245000000000005          1.3065480109470286E-018
  -85.230000000000004         -2.7196840340858026E-019
  -85.215000000000003         -2.0673849126629704E-018
  -85.200000000000003         -4.0759771361081217E-018
  -85.185000000000002         -6.2882729251521131E-018
  -85.170000000000002         -8.6884346661966979E-018
  -85.155000000000001         -1.1253745911669639E-017
  -85.140000000000001         -1.3954222605136807E-017
  -85.125000000000000         -1.6752382711501587E-017
  -85.109999999999999         -1.9603201135661493E-017
  -85.094999999999999         -2.2454257787837814E-017
  -85.079999999999998         -2.5246132975908417E-017
  -85.064999999999998         -2.7913031099589607E-017
  -85.049999999999997         -3.0383654153162990E-017
  -85.034999999999997         -3.2582343234720791E-017
  -85.019999999999996         -3.4430473172678618E-017
  -85.004999999999995         -3.5848082071582196E-017
  -84.989999999999995         -3.6755724196679482E-017
  -84.974999999999994         -3.7076524690562247E-017
  -84.959999999999994         -3.6738386491040370E-017
  -84.944999999999993         -3.5676316363024335E-017
  -84.930000000000007         -3.3834810487411832E-017
  -84.915000000000006         -3.1170240049974366E-017
  -84.900000000000006         -2.7653183890684650E-017
  -84.885000000000005         -2.3270627149784774E-017
  -84.870000000000005         -1.8027943192533884E-017
  -84.855000000000004         -1.1950624898230251E-017
  -84.840000000000003         -5.0856519897638235E-018
  -84.825000000000003          2.4975535727762720E-018
  -84.810000000000002          1.0706647000165841E-017
  -84.795000000000002          1.9426416095146660E-017
  -84.780000000000001          2.8519407428150180E-017
  -84.765000000000001          3.7827184479009219E-017
  -84.750000000000000          4.7172178039988244E-017
  -84.734999999999999          5.6360209116651657E-017
  -84.719999999999999          6.5183592509522094E-017
  -84.704999999999998          7.3424872361726713E-017
  -84.689999999999998          8.0861047397566121E-017
  -84.674999999999997          8.7268315630507968E-017
  -84.659999999999997          9.2427149943425583E-017
  -84.644999999999996          9.6127711158526514E-017
  -84.629999999999995          9.8175393456179083E-017
  -84.614999999999995          9.8396402880963451E-017
  -84.599999999999994          9.6643282908163465E-017
  -84.584999999999994          9.2800148842682895E-017
  -84.569999999999993          8.6787525171267647E-017
  -84.555000000000007          7.8566706458695139E-017
  -84.540000000000006          6.8143357237800134E-017
  -84.525000000000006          5.5570364128226823E-017
  -84.510000000000005          4.0949735043115245E-017
  -84.495000000000005          2.4433464420022020E-017
  -84.480000000000004          6.2233057462518920E-018
  -84.465000000000003         -1.3430618931751965E-017
  -84.450000000000003         -3.4232406429364021E-017
  -84.435000000000002         -5.5844127823757373E-017
  -84.420000000000002         -7.7890721227227003E-017
  -84.405000000000001         -9.9966007871784873E-017
  -84.390000000000001         -1.2163962222833189E-016
  -84.375000000000000         -1.4246486691375473E-016
  -84.359999999999999         -1.6198718963784324E-016
  -84.344999999999999         -1.7975321601557955E-016
  -84.329999999999998         -1.9532013310400690E-016
  -84.314999999999998         -2.0826509940887795E-016
  -84.299999999999997         -2.1819457548196450E-016
  -84.284999999999997         -2.2475328394145255E-016
  -84.269999999999996         -2.2763258715718633E-016
  -84.254999999999995         -2.2657813701697314E-016
  -84.239999999999995         -2.2139641296214495E-016
  -84.224999999999994         -2.1196016152726663E-016
  -84.209999999999994         -1.9821255209553332E-016
  -84.194999999999993         -1.8016982387673066E-016
  -84.180000000000007         -1.5792251675198626E-016
  -84.165000000000006         -1.3163507422707567E-016
  -84.150000000000006         -1.0154400378274003E-016
  -84.135000000000005         -6.7954554917346130E-017
  -84.120000000000005         -3.1236014143562132E-017
  -84.105000000000004          8.1842292053568375E-018
  -84.090000000000003          4.9827626329630476E-017
  -84.075000000000003          9.3172287474103152E-017
  -84.060000000000002          1.3766136953965519E-016
  -84.045000000000002          1.8271182269100002E-016
  -84.030000000000001          2.2772327262210175E-016
  -84.015000000000001          2.7208657029498652E-016
  -84.000000000000000          3.1519218285987628E-016
  -83.984999999999999          3.5643771107259558E-016
  -83.969999999999999          3.9523459938370072E-016
  -83.954999999999998          4.3101406516911041E-016
  -83.939999999999998          4.6323162506241777E-016
  -83.924999999999997          4.9137058896579766E-016
  -83.909999999999997          5.1494446879995050E-016
  -83.894999999999996          5.3349835493264153E-016
  -83.879999999999995          5.4660904852759881E-016
  -83.864999999999995          5.5388469096759882E-016
  -83.849999999999994          5.5496375800284160E-016
  -83.834999999999994          5.4951394802020743E-016
  -83.819999999999993          5.3723096443339521E-016
  -83.805000000000007          5.1783782746865278E-016
  -83.790000000000006          4.9108503298345456E-016
  -83.775000000000006          4.5675192889504078E-016
  -83.760000000000005          4.1464925627925932E-016
  -83.745000000000005          3.6462391393089397E-016
  -83.730000000000004          3.0656536405032804E-016
  -83.715000000000003          2.4041444668015173E-016
  -83.700000000000003          1.6617425878457845E-016
  -83.685000000000002          8.3923349434576234E-017
  -83.670000000000002         -6.1691142491913992E-018
  -83.655000000000001         -1.0382644655568005E-016
  -83.640000000000001         -2.0864621129558318E-016
  -83.625000000000000         -3.2008117762208929E-016
  -83.609999999999999         -4.3742014887941509E-016
  -83.594999999999999         -5.5976950530820728E-016
  -83.579999999999998         -6.8603623029937300E-016
  -83.564999999999998         -8.1491340495485807E-016
  -83.549999999999997         -9.4486906431043467E-016
  -83.534999999999997         -1.0741401622259522E-015
  -83.519999999999996         -1.2007310361381203E-015
  -83.504999999999995         -1.3224190715933437E-015
  -83.489999999999995         -1.4367677783188454E-015
  -83.474999999999994         -1.5411472248925192E-015
  -83.459999999999994         -1.6327638966543204E-015
  -83.444999999999993         -1.7086990239471292E-015
  -83.430000000000007         -1.7659565453573885E-015
  -83.415000000000006         -1.8015194354060972E-015
  -83.400000000000006         -1.8124148202066292E-015
  -83.385000000000005         -1.7957871399355537E-015
  -83.370000000000005         -1.7489774522923209E-015
  -83.355000000000004         -1.6696086651895800E-015
  -83.340000000000003         -1.5556736281796936E-015
  -83.325000000000003         -1.4056253414636202E-015
  -83.310000000000002         -1.2184660002294940E-015
  -83.295000000000002         -9.9383328613412720E-016
  -83.280000000000001         -7.3208035897696553E-016
  -83.265000000000001         -4.3434737804457250E-016
  -83.250000000000000         -1.0262178041622723E-016
  -83.234999999999999          2.6021582705569113E-016
  -83.219999999999999          6.5036237893457407E-016
  -83.204999999999998          1.0630824647369025E-015
  -83.189999999999998          1.4927192808035570E-015
  -83.174999999999997          1.9327294976169982E-015
  -83.159999999999997          2.3757410697999165E-015
  -83.144999999999996          2.8136369864978925E-015
  -83.129999999999995          3.2376646445087106E-015
  -83.114999999999995          3.6385685148177232E-015
  -83.099999999999994          4.0067470554513290E-015
  -83.084999999999994          4.3324308001541339E-015
  -83.069999999999993          4.6058805640986078E-015
  -83.055000000000007          4.8175994138801356E-015
  -83.040000000000006          4.9585567077315654E-015
  -83.025000000000006          5.0204210295837041E-015
  -83.010000000000005          4.9957939701587590E-015
  -82.995000000000005          4.8784388258660966E-015
  -82.980000000000004          4.6635046390167915E-015
  -82.965000000000003          4.3477303327639147E-015
  -82.950000000000003          3.9296323289003503E-015
  -82.935000000000002          3.4096618842287480E-015
  -82.920000000000002          2.7903319337453745E-015
  -82.905000000000001          2.0763077231654697E-015
  -82.890000000000001          1.2744533957353456E-015
  -82.875000000000000          3.9383530095483661E-016
  -82.859999999999999         -5.5432361285295416E-016
  -82.844999999999999         -1.5567391956273395E-015
  -82.829999999999998         -2.5982119440556535E-015
  -82.814999999999998         -3.6618225338351691E-015
  -82.799999999999997         -4.7291755269338910E-015
  -82.784999999999997         -5.7806885804024839E-015
  -82.769999999999996         -6.7959215186742805E-015
  -82.754999999999995         -7.7539428870732063E-015
  -82.739999999999995         -8.6337221280683579E-015
  -82.724999999999994         -9.4145458979675786E-015
  -82.709999999999994         -1.0076446242072296E-014
  -82.694999999999993         -1.0600630887414725E-014
  -82.680000000000007         -1.0969914382528024E-014
  -82.665000000000006         -1.1169123826228027E-014
  -82.650000000000006         -1.1185489349801927E-014
  -82.635000000000005         -1.1008997329747285E-014
  -82.620000000000005         -1.0632696166665984E-014
  -82.605000000000004         -1.0052957171411987E-014
  -82.590000000000003         -9.2696727708009921E-015
  -82.575000000000003         -8.2863937269478903E-015
  -82.560000000000002         -7.1103935117707538E-015
  -82.545000000000002         -5.7526606836943127E-015
  -82.530000000000001         -4.2278218076517542E-015
  -82.515000000000001         -2.5539856010224279E-015
  -82.500000000000000         -7.5251857577994215E-016
  -82.484999999999999          1.1522493054570075E-015
  -82.469999999999999          3.1333798538668925E-015
  -82.454999999999998          5.1617391594706644E-015
  -82.439999999999998          7.2064589064506530E-015
  -82.424999999999997          9.2354340050070788E-015
  -82.409999999999997          1.1215848704697415E-014
  -82.394999999999996          1.3114722083654422E-014
  -82.379999999999995          1.4899458620001860E-014
  -82.364999999999995          1.6538389445907783E-014
  -82.349999999999994          1.8001310213506053E-014
  -82.334999999999994          1.9259970679939842E-014
  -82.319999999999993          2.0288549892845051E-014
  -82.305000000000007          2.1064069542428565E-014
  -82.290000000000006          2.1566758185635575E-014
  -82.275000000000006          2.1780371424603637E-014
  -82.260000000000005          2.1692425687756117E-014
  -82.245000000000005          2.1294384577050587E-014
  -82.230000000000004          2.0581775758525545E-014
  -82.215000000000003          1.9554236702079564E-014
  -82.200000000000003          1.8215512987405404E-014
  -82.185000000000002          1.6573385459156542E-014
  -82.170000000000002          1.4639555030466350E-014
  -82.155000000000001          1.2429480899655166E-014
  -82.140000000000001          9.9621848856194795E-015
  -82.125000000000000          7.2600201878373315E-015
  -82.109999999999999          4.3484291349453995E-015
  -82.094999999999999          1.2556818750747694E-015
  -82.079999999999998         -1.9873866278791869E-015
  -82.064999999999998         -5.3476395979869338E-015
  -82.049999999999997         -8.7898938277183696E-015
  -82.034999999999997         -1.2277168282112845E-014
  -82.019999999999996         -1.5770913221191396E-014
  -82.004999999999995         -1.9231239322368976E-014
  -81.989999999999995         -2.2617121391878270E-014
  -81.974999999999994         -2.5886616052237139E-014
  -81.960000000000008         -2.8997054865760596E-014
  -81.944999999999993         -3.1905267951258878E-014
  -81.930000000000007         -3.4567800824471945E-014
  -81.915000000000006         -3.6941183754546705E-014
  -81.900000000000006         -3.8982197732382456E-014
  -81.885000000000005         -4.0648230224468729E-014
  -81.870000000000005         -4.1897637702986712E-014
  -81.855000000000004         -4.2690216596127928E-014
  -81.840000000000003         -4.2987708119730794E-014