  -90.000000000000000          0.0000000000000000     
  -89.984999999999999          0.0000000000000000     
  -89.969999999999999          0.0000000000000000     
  -89.954999999999998          0.0000000000000000     
  -89.939999999999998          0.0000000000000000     
  -89.924999999999997          0.0000000000000000     
  -89.909999999999997          0.0000000000000000     
  -89.894999999999996          0.0000000000000000     
  -89.879999999999995          0.0000000000000000     
  -89.864999999999995          0.0000000000000000     
  -89.849999999999994          0.0000000000000000     
  -89.834999999999994          0.0000000000000000     
  -89.819999999999993          0.0000000000000000     
  -89.805000000000007          0.0000000000000000     
  -89.790000000000006          0.0000000000000000     
  -89.775000000000006          0.0000000000000000     
  -89.760000000000005          0.0000000000000000     
  -89.745000000000005          0.0000000000000000     
  -89.730000000000004          0.0000000000000000     
  -89.715000000000003          0.0000000000000000     
  -89.700000000000003          0.0000000000000000     
  -89.685000000000002          0.0000000000000000     
  -89.670000000000002          0.0000000000000000     
  -89.655000000000001          0.0000000000000000     
  -89.640000000000001          0.0000000000000000     
  -89.625000000000000          0.0000000000000000     
  -89.609999999999999          0.0000000000000000     
  -89.594999999999999          0.0000000000000000     
  -89.579999999999998          0.0000000000000000     
  -89.564999999999998          0.0000000000000000     
  -89.549999999999997          0.0000000000000000     
  -89.534999999999997          0.0000000000000000     
  -89.519999999999996          0.0000000000000000     
  -89.504999999999995          0.0000000000000000     
  -89.489999999999995          0.0000000000000000     
  -89.474999999999994          0.0000000000000000     
  -89.459999999999994          0.0000000000000000     
  -89.444999999999993          0.0000000000000000     
  -89.430000000000007          0.0000000000000000     
  -89.415000000000006          0.0000000000000000     
  -89.400000000000006          0.0000000000000000     
  -89.385000000000005          0.0000000000000000     
  -89.370000000000005          0.0000000000000000     
  -89.355000000000004          0.0000000000000000     
  -89.340000000000003          0.0000000000000000     
  -89.325000000000003          0.0000000000000000     
  -89.310000000000002          0.0000000000000000     
  -89.295000000000002          0.0000000000000000     
  -89.280000000000001          0.0000000000000000     
  -89.265000000000001          0.0000000000000000     
  -89.250000000000000          0.0000000000000000     
  -89.234999999999999          0.0000000000000000     
  -89.219999999999999          0.0000000000000000     
  -89.204999999999998          0.0000000000000000     
  -89.189999999999998          0.0000000000000000     
  -89.174999999999997          0.0000000000000000     
  -89.159999999999997          0.0000000000000000     
  -89.144999999999996          0.0000000000000000     
  -89.129999999999995          0.0000000000000000     
  -89.114999999999995          0.0000000000000000     
  -89.099999999999994          0.0000000000000000     
  -89.084999999999994          0.0000000000000000     
  -89.069999999999993          0.0000000000000000     
  -89.055000000000007          0.0000000000000000     
  -89.040000000000006          0.0000000000000000     
  -89.025000000000006          0.0000000000000000     
  -89.010000000000005          0.0000000000000000     
  -88.995000000000005          0.0000000000000000     
  -88.980000000000004          0.0000000000000000     
  -88.965000000000003          0.0000000000000000     
  -88.950000000000003          0.0000000000000000     
  -88.935000000000002          0.0000000000000000     
  -88.920000000000002          0.0000000000000000     
  -88.905000000000001          0.0000000000000000     
  -88.890000000000001          0.0000000000000000     
  -88.875000000000000          0.0000000000000000     
  -88.859999999999999          0.0000000000000000     
  -88.844999999999999          0.0000000000000000     
  -88.829999999999998          0.0000000000000000     
  -88.814999999999998          0.0000000000000000     
  -88.799999999999997          0.0000000000000000     
  -88.784999999999997          0.0000000000000000     
  -88.769999999999996          0.0000000000000000     
  -88.754999999999995          0.0000000000000000     
  -88.739999999999995          0.0000000000000000     
  -88.724999999999994          0.0000000000000000     
  -88.709999999999994          0.0000000000000000     
  -88.694999999999993          0.0000000000000000     
  -88.680000000000007          0.0000000000000000     
  -88.665000000000006          0.0000000000000000     
  -88.650000000000006          0.0000000000000000     
  -88.635000000000005          0.0000000000000000     
  -88.620000000000005          0.0000000000000000     
  -88.605000000000004          0.0000000000000000     
  -88.590000000000003          0.0000000000000000     
  -88.575000000000003          0.0000000000000000     
  -88.560000000000002          0.0000000000000000     
  -88.545000000000002          0.0000000000000000     
  -88.530000000000001          0.0000000000000000     
  -88.515000000000001          0.0000000000000000     
  -88.500000000000000          0.0000000000000000     
  -88.484999999999999          0.0000000000000000     
  -88.469999999999999          0.0000000000000000     
  -88.454999999999998          0.0000000000000000     
  -88.439999999999998          0.0000000000000000     
  -88.424999999999997          0.0000000000000000     
  -88.409999999999997          0.0000000000000000     
  -88.394999999999996          0.0000000000000000     
  -88.379999999999995          0.0000000000000000     
  -88.364999999999995          0.0000000000000000     
  -88.349999999999994          0.0000000000000000     
  -88.334999999999994          0.0000000000000000     
  -88.319999999999993          0.0000000000000000     
  -88.305000000000007          0.0000000000000000     
  -88.290000000000006          0.0000000000000000     
  -88.275000000000006          0.0000000000000000     
  -88.260000000000005          0.0000000000000000     
  -88.245000000000005          0.0000000000000000     
  -88.230000000000004          0.0000000000000000     
  -88.215000000000003          0.0000000000000000     
  -88.200000000000003          0.0000000000000000     
  -88.185000000000002          0.0000000000000000     
  -88.170000000000002          0.0000000000000000     
  -88.155000000000001          0.0000000000000000     
  -88.140000000000001          0.0000000000000000     
  -88.125000000000000          0.0000000000000000     
  -88.109999999999999          0.0000000000000000     
  -88.094999999999999          0.0000000000000000     
  -88.079999999999998          0.0000000000000000     
  -88.064999999999998          0.0000000000000000     
  -88.049999999999997          0.0000000000000000     
  -88.034999999999997          0.0000000000000000     
  -88.019999999999996          0.0000000000000000     
  -88.004999999999995          0.0000000000000000     
  -87.989999999999995          0.0000000000000000     
  -87.974999999999994          0.0000000000000000     
  -87.959999999999994          0.0000000000000000     
  -87.944999999999993          0.0000000000000000     
  -87.930000000000007          0.0000000000000000     
  -87.915000000000006          0.0000000000000000     
  -87.900000000000006          0.0000000000000000     
  -87.885000000000005          0.0000000000000000     
  -87.870000000000005          0.0000000000000000     
  -87.855000000000004          0.0000000000000000     
  -87.840000000000003          0.0000000000000000     
  -87.825000000000003          0.0000000000000000     
  -87.810000000000002          0.0000000000000000     
  -87.795000000000002          0.0000000000000000     
  -87.780000000000001          0.0000000000000000     
  -87.765000000000001          0.0000000000000000     
  -87.750000000000000          0.0000000000000000     
  -87.734999999999999          0.0000000000000000     
  -87.719999999999999          0.0000000000000000     
  -87.704999999999998          0.0000000000000000     
  -87.689999999999998          0.0000000000000000     
  -87.674999999999997          0.0000000000000000     
  -87.659999999999997          0.0000000000000000     
  -87.644999999999996          0.0000000000000000     
  -87.629999999999995          0.0000000000000000     
  -87.614999999999995          0.0000000000000000     
  -87.599999999999994          0.0000000000000000     
  -87.584999999999994          0.0000000000000000     
  -87.569999999999993          0.0000000000000000     
  -87.555000000000007          0.0000000000000000     
  -87.540000000000006          0.0000000000000000     
  -87.525000000000006          0.0000000000000000     
  -87.510000000000005          0.0000000000000000     
  -87.495000000000005          0.0000000000000000     
  -87.480000000000004          0.0000000000000000     
  -87.465000000000003          0.0000000000000000     
  -87.450000000000003          0.0000000000000000     
  -87.435000000000002          0.0000000000000000     
  -87.420000000000002          0.0000000000000000     
  -87.405000000000001          0.0000000000000000     
  -87.390000000000001          0.0000000000000000     
  -87.375000000000000          0.0000000000000000     
  -87.359999999999999          0.0000000000000000     
  -87.344999999999999          0.0000000000000000     
  -87.329999999999998          0.0000000000000000     
  -87.314999999999998          0.0000000000000000     
  -87.299999999999997          0.0000000000000000     
  -87.284999999999997          0.0000000000000000     
  -87.269999999999996          0.0000000000000000     
  -87.254999999999995          0.0000000000000000     
  -87.239999999999995          0.0000000000000000     
  -87.224999999999994          0.0000000000000000     
  -87.209999999999994          0.0000000000000000     
  -87.194999999999993          0.0000000000000000     
  -87.180000000000007          0.0000000000000000     
  -87.165000000000006          0.0000000000000000     
  -87.150000000000006          0.0000000000000000     
  -87.135000000000005          0.0000000000000000     
  -87.120000000000005          0.0000000000000000     
  -87.105000000000004          0.0000000000000000     
  -87.090000000000003          0.0000000000000000     
  -87.075000000000003          0.0000000000000000     
  -87.060000000000002          0.0000000000000000     
  -87.045000000000002          0.0000000000000000     
  -87.030000000000001          0.0000000000000000     
  -87.015000000000001          0.0000000000000000     
  -87.000000000000000          0.0000000000000000     
  -86.984999999999999          0.0000000000000000     
  -86.969999999999999          0.0000000000000000     
  -86.954999999999998          0.0000000000000000     
  -86.939999999999998          0.0000000000000000     
  -86.924999999999997          0.0000000000000000     
  -86.909999999999997          0.0000000000000000     
  -86.894999999999996          0.0000000000000000     
  -86.879999999999995          0.0000000000000000     
  -86.864999999999995          0.0000000000000000     
  -86.849999999999994          0.0000000000000000     
  -86.834999999999994          0.0000000000000000     
  -86.819999999999993          0.0000000000000000     
  -86.805000000000007          0.0000000000000000     
  -86.790000000000006          0.0000000000000000     
  -86.775000000000006          0.0000000000000000     
  -86.760000000000005          0.0000000000000000     
  -86.745000000000005          0.0000000000000000     
  -86.730000000000004          0.0000000000000000     
  -86.715000000000003          0.0000000000000000     
  -86.700000000000003          0.0000000000000000     
  -86.685000000000002          0.0000000000000000     
  -86.670000000000002          0.0000000000000000     
  -86.655000000000001          0.0000000000000000     
  -86.640000000000001          0.0000000000000000     
  -86.625000000000000          0.0000000000000000     
  -86.609999999999999          0.0000000000000000     
  -86.594999999999999          0.0000000000000000     
  -86.579999999999998          0.0000000000000000     
  -86.564999999999998          0.0000000000000000     
  -86.549999999999997          0.0000000000000000     
  -86.534999999999997          0.0000000000000000     
  -86.519999999999996          0.0000000000000000     
  -86.504999999999995          0.0000000000000000     
  -86.489999999999995          0.0000000000000000     
  -86.474999999999994          0.0000000000000000     
  -86.459999999999994          0.0000000000000000     
  -86.444999999999993          0.0000000000000000     
  -86.430000000000007          0.0000000000000000     
  -86.415000000000006          0.0000000000000000     
  -86.400000000000006          0.0000000000000000     
  -86.385000000000005          0.0000000000000000     
  -86.370000000000005          0.0000000000000000     
  -86.355000000000004          0.0000000000000000     
  -86.340000000000003          0.0000000000000000     
  -86.325000000000003          0.0000000000000000     
  -86.310000000000002          0.0000000000000000     
  -86.295000000000002          0.0000000000000000     
  -86.280000000000001          0.0000000000000000     
  -86.265000000000001          0.0000000000000000     
  -86.250000000000000          0.0000000000000000     
  -86.234999999999999          1.3134800704745058E-038
  -86.219999999999999          3.2020174377269227E-038
  -86.204999999999998          5.7883144195784639E-038
  -86.189999999999998          9.1994874240129659E-038
  -86.174999999999997          1.3565444665944739E-037
  -86.159999999999997          1.9016310720770987E-037
  -86.144999999999996          2.5679027534816736E-037
  -86.129999999999995          3.3673170708639753E-037
  -86.114999999999995          4.3106559509201503E-037
  -86.099999999999994          5.4071287271577413E-037
  -86.084999999999994          6.6639217065173146E-037
  -86.069999999999993          8.0857531169801904E-037
  -86.055000000000007          9.6744094459325670E-037
  -86.040000000000006          1.1428236040147770E-036
  -86.025000000000006          1.3332186765650773E-036
  -86.010000000000005          1.5363952950889526E-036
  -85.995000000000005          1.7482459735277740E-036
  -85.980000000000004          1.9638626247738867E-036
  -85.965000000000003          2.1796053704610132E-036
  -85.950000000000003          2.3846004932383998E-036
  -85.935000000000002          2.5533342268648408E-036
  -85.920000000000002          2.6887460246822057E-036
  -85.905000000000001          2.7905989439357588E-036
  -85.890000000000001          2.8515373559888924E-036
  -85.875000000000000          2.8639292288855079E-036
  -85.859999999999999          2.8491930397100155E-036
  -85.844999999999999          2.8003062428655839E-036
  -85.829999999999998          2.7175054223745420E-036
  -85.814999999999998          2.6257535108673508E-036
  -85.799999999999997          2.5150610663761843E-036
  -85.784999999999997          2.3834550606632730E-036
  -85.769999999999996          2.2173989057216884E-036
  -85.754999999999995          1.9884460185178824E-036
  -85.739999999999995          1.6935044844370670E-036
  -85.724999999999994          1.3423359503687077E-036
  -85.709999999999994          9.2861695049385562E-037
  -85.694999999999993          4.5449934115510323E-037
  -85.680000000000007         -7.6418713133957868E-038
  -85.665000000000006         -6.3753004096637864E-037
  -85.650000000000006         -1.4431679171923169E-036
  -85.635000000000005         -2.4951123159627087E-036
  -85.620000000000005         -3.7689413179581997E-036
  -85.605000000000004         -5.2745663408481222E-036
  -85.590000000000003         -7.0235464602465498E-036
  -85.575000000000003         -8.9970532470466530E-036
  -85.560000000000002         -1.1168309838202647E-035
  -85.545000000000002         -1.3516378458055323E-035
  -85.530000000000001         -1.5998284399191625E-035
  -85.515000000000001         -1.8377567043230626E-035
  -85.500000000000000         -2.0450701711530689E-035
  -85.484999999999999         -2.2140892405359320E-035
  -85.469999999999999         -2.3407890783595654E-035
  -85.454999999999998         -2.4149768055082084E-035
  -85.439999999999998         -2.4556444330662218E-035
  -85.424999999999997         -2.4651987684977588E-035
  -85.409999999999997         -2.4470959833035403E-035
  -85.394999999999996         -2.4013347860469015E-035
  -85.379999999999995         -2.3550017693337165E-035
  -85.364999999999995         -2.2996886760259074E-035
  -85.349999999999994         -2.2057742538236397E-035
  -85.334999999999994         -2.0702457244810802E-035
  -85.319999999999993         -1.8812840031356582E-035
  -85.305000000000007         -1.6324205705197081E-035
  -85.290000000000006         -1.3180445648039019E-035
  -85.275000000000006         -8.8863599057244693E-036
  -85.260000000000005         -3.5601102695541826E-036
  -85.245000000000005          2.8415100677521417E-036
  -85.230000000000004          1.0364261370746885E-035
  -85.215000000000003          1.9028601789861273E-035
  -85.200000000000003          2.8806384462987696E-035
  -85.185000000000002          3.9738493405071989E-035
  -85.170000000000002          5.1799559060300508E-035
  -85.155000000000001          6.4945092870503216E-035
  -85.140000000000001          7.9121675275508711E-035
  -85.125000000000000          9.4182960672470724E-035
  -85.109999999999999          1.1001352906187419E-034
  -85.094999999999999          1.2652041996273318E-034
  -85.079999999999998          1.4354557300672278E-034
  -85.064999999999998          1.6093202985147195E-034
  -85.049999999999997          1.7850969967865908E-034
  -85.034999999999997          1.9603103990839030E-034
  -85.019999999999996          2.1323878487761602E-034
  -85.004999999999995          2.2981056903594766E-034
  -84.989999999999995          2.4540191743729658E-034
  -84.974999999999994          2.5959771068015462E-034
  -84.959999999999994          2.7193133260854304E-034
  -84.944999999999993          2.8186552261106354E-034
  -84.930000000000007          2.8882943124359805E-034
  -84.915000000000006          2.9217851107636171E-034
  -84.900000000000006          2.9122443210677634E-034
  -84.885000000000005          2.8524676782635654E-034
  -84.870000000000005          2.7346689098092677E-034
  -84.855000000000004          2.5508358278425664E-034
  -84.840000000000003          2.2928687711910671E-034
  -84.825000000000003          1.9517451319459876E-034
  -84.810000000000002          1.5201339120377757E-034
  -84.795000000000002          9.9013622564751259E-035
  -84.780000000000001          3.5485769509269222E-035
  -84.765000000000001         -3.9207371422620012E-035
  -84.750000000000000         -1.2562767562514433E-034
  -84.734999999999999         -2.2408334015355069E-034
  -84.719999999999999         -3.3493062072616924E-034
  -84.704999999999998         -4.5825641668123948E-034
  -84.689999999999998         -5.9394129595600795E-034
  -84.674999999999997         -7.4163761527976855E-034
  -84.659999999999997         -9.0073567879352840E-034
  -84.644999999999996         -1.0703579524137498E-033
  -84.629999999999995         -1.2492838964787450E-033
  -84.614999999999995         -1.4359806847221409E-033
  -84.599999999999994         -1.6285454856635440E-033
  -84.584999999999994         -1.8246915954486202E-033
  -84.569999999999993         -2.0217305299273445E-033
  -84.555000000000007         -2.2165470453990454E-033
  -84.540000000000006         -2.4055834347425623E-033
  -84.525000000000006         -2.5848250174078525E-033
  -84.510000000000005         -2.7497904048533983E-033
  -84.495000000000005         -2.8955272761133839E-033
  -84.480000000000004         -3.0166140308366262E-033
  -84.465000000000003         -3.1071709932171058E-033
  -84.450000000000003         -3.1608807994741147E-033
  -84.435000000000002         -3.1710194382499569E-033
  -84.420000000000002         -3.1305030867129897E-033
  -84.405000000000001         -3.0319483546431029E-033
  -84.390000000000001         -2.8677521813133764E-033
  -84.375000000000000         -2.6301893647870000E-033
  -84.359999999999999         -2.3115328664172403E-033
  -84.344999999999999         -1.9041959721954933E-033
  -84.329999999999998         -1.4008998925317729E-033
  -84.314999999999998         -7.9486891268404618E-034
  -84.299999999999997         -8.0042331864211083E-035
  -84.284999999999997          7.4867235203871491E-034
  -84.269999999999996          1.6951308121528955E-033
  -84.254999999999995          2.7616561019699877E-033
  -84.239999999999995          3.9487187865723050E-033
  -84.224999999999994          5.2545967667358929E-033
  -84.209999999999994          6.6750152837855891E-033
  -84.194999999999993          8.2027964753416850E-033
  -84.180000000000007          9.8274721968681235E-033
  -84.165000000000006          1.1534932842735191E-032
  -84.150000000000006          1.3307035392321914E-032
  -84.135000000000005          1.5121308067060418E-032
  -84.120000000000005          1.6950638824432956E-032
  -84.105000000000004          1.8763029238842205E-032
  -84.090000000000003          2.0521405687831171E-032
  -84.075000000000003          2.2183510618855729E-032
  -84.060000000000002          2.3701896671812878E-032
  -84.045000000000002          2.5024032473532308E-032
  -84.030000000000001          2.6092536267278627E-032
  -84.015000000000001          2.6845566764623016E-032
  -84.000000000000000          2.7217384443995737E-032
  -83.984999999999999          2.7139102397702727E-032
  -83.969999999999999          2.6539620849934499E-032
  -83.954999999999998          2.5346802651116968E-032
  -83.939999999999998          2.3488851545037785E-032
  -83.924999999999997          2.0895937289786352E-032
  -83.909999999999997          1.7502032367676982E-032
  -83.894999999999996          1.3246992610249851E-032
  -83.879999999999995          8.0788325145238128E-033
  -83.864999999999995          1.9562112298773949E-033
  -83.849999999999994         -5.1489271714366619E-033
  -83.834999999999994         -1.3248578058255522E-032
  -83.819999999999993         -2.2335812075052081E-032
  -83.805000000000007         -3.2381883609502932E-032
  -83.790000000000006         -4.3333376728938774E-032
  -83.775000000000006         -5.5109432115702417E-032
  -83.760000000000005         -6.7599188897567812E-032
  -83.745000000000005         -8.0659471862604805E-032
  -83.730000000000004         -9.4112863648443787E-032
  -83.715000000000003         -1.0774624712928068E-031
  -83.700000000000003         -1.2130988853028328E-031
  -83.685000000000002         -1.3451726110343867E-031
  -83.670000000000002         -1.4704553883518051E-031
  -83.655000000000001         -1.5853710107915814E-031
  -83.640000000000001         -1.6860193056471224E-031
  -83.625000000000000         -1.7682106935026623E-031
  -83.609999999999999         -1.8275121500623802E-031
  -83.594999999999999         -1.8593052755713302E-031
  -83.579999999999998         -1.8588560016304460E-031
  -83.564999999999998         -1.8213975810977079E-031
  -83.549999999999997         -1.7422246276362094E-031
  -83.534999999999997         -1.6167998506012117E-031
  -83.519999999999996         -1.4408718395740957E-031
  -83.504999999999995         -1.2106028405982968E-031
  -83.489999999999995         -9.2270540739758786E-032
  -83.474999999999994         -5.7458592923631464E-032
  -83.459999999999994         -1.6449353666628607E-032
  -83.444999999999993          3.0832837725140461E-032
  -83.430000000000007          8.4349095898550539E-032
  -83.415000000000006          1.4393114883728142E-031
  -83.400000000000006          2.0926717021615459E-031
  -83.385000000000005          2.7988859035451702E-031
  -83.370000000000005          3.5515824429444902E-031
  -83.355000000000004          4.3426038597625393E-031
  -83.340000000000003          5.1619281242630770E-031
  -83.325000000000003          5.9976143297315803E-031
  -83.310000000000002          6.8357817686757992E-031
  -83.295000000000002          7.6606167506929918E-031
  -83.280000000000001          8.4544224434303986E-031
  -83.265000000000001          9.1977053889694635E-031
  -83.250000000000000          9.8693076293908659E-031
  -83.234999999999999          1.0446586322311327E-030
  -83.219999999999999          1.0905636614612524E-030
  -83.204999999999998          1.1221569999503367E-030
  -83.189999999999998          1.1368841574147267E-030
  -83.174999999999997          1.1321629959436321E-030
  -83.159999999999997          1.1054262358748571E-030
  -83.144999999999996          1.0541694159643137E-030
  -83.129999999999995          9.7600355553293874E-031
  -83.114999999999995          8.6871223647236980E-031
  -83.099999999999994          7.3031188259525531E-031
  -83.084999999999994          5.5911674096296805E-031
  -83.069999999999993          3.5380593208337604E-031
  -83.055000000000007          1.1349307444124173E-031
  -83.040000000000006         -1.6220291547702797E-031
  -83.025000000000006         -4.7308644716639973E-031
  -83.010000000000005         -8.1831418571476311E-031
  -82.995000000000005         -1.1963261795889159E-030
  -82.980000000000004         -1.6047792453697030E-030
  -82.965000000000003         -2.0404847841008578E-030
  -82.950000000000003         -2.4993526396788073E-030
  -82.935000000000002         -2.9763419161690331E-030
  -82.920000000000002         -3.4654209169585960E-030
  -82.905000000000001         -3.9595378044171391E-030
  -82.890000000000001         -4.4506040489364281E-030
  -82.875000000000000         -4.9294921719811983E-030
  -82.859999999999999         -5.3860507924168444E-030
  -82.844999999999999         -5.8091392330631092E-030
  -82.829999999999998         -6.1866816874737696E-030
  -82.814999999999998         -6.5057454608406266E-030
  -82.799999999999997         -6.7526459181291476E-030
  -82.784999999999997         -6.9130766348129889E-030
  -82.769999999999996         -6.9722718972130534E-030
  -82.754999999999995         -6.9151981670173530E-030
  -82.739999999999995         -6.7267797761963656E-030
  -82.724999999999994         -6.3921577238393132E-030
  -82.709999999999994         -5.8969838318605107E-030
  -82.694999999999993         -5.2277480026266356E-030
  -82.680000000000007         -4.3721423400868382E-030
  -82.665000000000006         -3.3194553635582335E-030
  -82.650000000000006         -2.0609963141667741E-030
  -82.635000000000005         -5.9054837844915327E-031
  -82.620000000000005          1.0951573993447178E-030
  -82.605000000000004          2.9959510427317102E-030
  -82.590000000000003          5.1077238227975077E-030
  -82.575000000000003          7.4219253817133252E-030
  -82.560000000000002          9.9250745860266443E-030
  -82.545000000000002          1.2598287918327663E-029
  -82.530000000000001          1.5416840500638927E-029
  -82.515000000000001          1.8349780532268255E-029
  -82.500000000000000          2.1359604289130630E-029
  -82.484999999999999          2.4402010868606837E-029
  -82.469999999999999          2.7425766020277869E-029
  -82.454999999999998          3.0372670548636774E-029
  -82.439999999999998          3.3177670151280797E-029
  -82.424999999999997          3.5769129262075347E-029
  -82.409999999999997          3.8069267394657023E-029
  -82.394999999999996          3.9994794097462152E-029
  -82.379999999999995          4.1457745529546387E-029
  -82.364999999999995          4.2366540712788576E-029
  -82.349999999999994          4.2627272506806612E-029
  -82.334999999999994          4.2145236315850792E-029
  -82.319999999999993          4.0826684490612528E-029
  -82.305000000000007          3.8580821471276115E-029
  -82.290000000000006          3.5322039671813540E-029
  -82.275000000000006          3.0972338929477121E-029
  -82.260000000000005          2.5463965630676421E-029
  -82.245000000000005          1.8742173712109464E-029
  -82.230000000000004          1.0768140639069158E-029
  -82.215000000000003          1.5219388670830741E-030
  -82.200000000000003         -8.9944659892151165E-030
  -82.185000000000002         -2.0754260433485417E-029
  -82.170000000000002         -3.3702931432425958E-029
  -82.155000000000001         -4.7755596633003411E-029
  -82.140000000000001         -6.2794626854598786E-029
  -82.125000000000000         -7.8667581732848296E-029
  -82.109999999999999         -9.5185632864501387E-029
  -82.094999999999999         -1.1212247746256148E-028
  -82.079999999999998         -1.2921393812396942E-028
  -82.064999999999998         -1.4615820958937756E-028
  -82.049999999999997         -1.6261697818992998E-028
  -82.034999999999997         -1.7821739592545546E-028
  -82.019999999999996         -1.9255500547057055E-028
  -82.004999999999995         -2.0519765221987903E-028
  -81.989999999999995         -2.1569052781701388E-028
  -81.974999999999994         -2.2356223683396200E-028
  -81.960000000000008         -2.2833194678598281E-028
  -81.944999999999993         -2.2951759740799621E-028
  -81.930000000000007         -2.2664521734068847E-028
  -81.915000000000006         -2.1925908341096899E-028
  -81.900000000000006         -2.0693289102564763E-028
  -81.885000000000005         -1.8928149030703341E-028
  -81.870000000000005         -1.6597339260051083E-028
  -81.855000000000004         -1.3674360198279436E-028
  -81.840000000000003         -1.0140656714080445E-028