  -90.000000000000000          0.0000000000000000     
  -89.984999999999999          0.0000000000000000     
  -89.969999999999999          0.0000000000000000     
  -89.954999999999998          0.0000000000000000     
  -89.939999999999998          0.0000000000000000     
  -89.924999999999997          0.0000000000000000     
  -89.909999999999997          0.0000000000000000     
  -89.894999999999996          0.0000000000000000     
  -89.879999999999995          0.0000000000000000     
  -89.864999999999995          0.0000000000000000     
  -89.849999999999994          0.0000000000000000     
  -89.834999999999994          0.0000000000000000     
  -89.819999999999993          0.0000000000000000     
  -89.805000000000007          0.0000000000000000     
  -89.790000000000006          0.0000000000000000     
  -89.775000000000006          0.0000000000000000     
  -89.760000000000005          0.0000000000000000     
  -89.745000000000005          0.0000000000000000     
  -89.730000000000004          0.0000000000000000     
  -89.715000000000003          0.0000000000000000     
  -89.700000000000003          0.0000000000000000     
  -89.685000000000002          0.0000000000000000     
  -89.670000000000002          0.0000000000000000     
  -89.655000000000001          0.0000000000000000     
  -89.640000000000001          0.0000000000000000     
  -89.625000000000000          0.0000000000000000     
  -89.609999999999999          0.0000000000000000     
  -89.594999999999999          0.0000000000000000     
  -89.579999999999998          0.0000000000000000     
  -89.564999999999998          0.0000000000000000     
  -89.549999999999997          0.0000000000000000     
  -89.534999999999997          0.0000000000000000     
  -89.519999999999996          0.0000000000000000     
  -89.504999999999995          0.0000000000000000     
  -89.489999999999995          0.0000000000000000     
  -89.474999999999994          0.0000000000000000     
  -89.459999999999994          0.0000000000000000     
  -89.444999999999993          0.0000000000000000     
  -89.430000000000007          0.0000000000000000     
  -89.415000000000006          0.0000000000000000     
  -89.400000000000006          0.0000000000000000     
  -89.385000000000005          0.0000000000000000     
  -89.370000000000005          0.0000000000000000     
  -89.355000000000004          0.0000000000000000     
  -89.340000000000003          0.0000000000000000     
  -89.325000000000003          0.0000000000000000     
  -89.310000000000002          0.0000000000000000     
  -89.295000000000002          0.0000000000000000     
  -89.280000000000001          0.0000000000000000     
  -89.265000000000001          0.0000000000000000     
  -89.250000000000000          0.0000000000000000     
  -89.234999999999999          0.0000000000000000     
  -89.219999999999999          0.0000000000000000     
  -89.204999999999998          0.0000000000000000     
  -89.189999999999998          0.0000000000000000     
  -89.174999999999997          0.0000000000000000     
  -89.159999999999997          0.0000000000000000     
  -89.144999999999996          0.0000000000000000     
  -89.129999999999995          0.0000000000000000     
  -89.114999999999995          0.0000000000000000     
  -89.099999999999994          0.0000000000000000     
  -89.084999999999994          0.0000000000000000     
  -89.069999999999993          0.0000000000000000     
  -89.055000000000007          0.0000000000000000     
  -89.040000000000006          0.0000000000000000     
  -89.025000000000006          0.0000000000000000     
  -89.010000000000005          0.0000000000000000     
  -88.995000000000005          0.0000000000000000     
  -88.980000000000004          0.0000000000000000     
  -88.965000000000003          0.0000000000000000     
  -88.950000000000003          0.0000000000000000     
  -88.935000000000002          0.0000000000000000     
  -88.920000000000002          0.0000000000000000     
  -88.905000000000001          0.0000000000000000     
  -88.890000000000001          0.0000000000000000     
  -88.875000000000000          0.0000000000000000     
  -88.859999999999999          0.0000000000000000     
  -88.844999999999999          0.0000000000000000     
  -88.829999999999998          0.0000000000000000     
  -88.814999999999998          0.0000000000000000     
  -88.799999999999997          0.0000000000000000     
  -88.784999999999997          0.0000000000000000     
  -88.769999999999996          0.0000000000000000     
  -88.754999999999995          0.0000000000000000     
  -88.739999999999995          0.0000000000000000     
  -88.724999999999994          0.0000000000000000     
  -88.709999999999994          0.0000000000000000     
  -88.694999999999993          0.0000000000000000     
  -88.680000000000007          0.0000000000000000     
  -88.665000000000006          0.0000000000000000     
  -88.650000000000006          0.0000000000000000     
  -88.635000000000005          0.0000000000000000     
  -88.620000000000005          0.0000000000000000     
  -88.605000000000004          0.0000000000000000     
  -88.590000000000003          0.0000000000000000     
  -88.575000000000003          0.0000000000000000     
  -88.560000000000002          0.0000000000000000     
  -88.545000000000002          0.0000000000000000     
  -88.530000000000001          0.0000000000000000     
  -88.515000000000001          0.0000000000000000     
  -88.500000000000000          0.0000000000000000     
  -88.484999999999999          0.0000000000000000     
  -88.469999999999999          0.0000000000000000     
  -88.454999999999998          0.0000000000000000     
  -88.439999999999998          0.0000000000000000     
  -88.424999999999997          0.0000000000000000     
  -88.409999999999997          0.0000000000000000     
  -88.394999999999996          0.0000000000000000     
  -88.379999999999995          0.0000000000000000     
  -88.364999999999995          0.0000000000000000     
  -88.349999999999994          0.0000000000000000     
  -88.334999999999994          0.0000000000000000     
  -88.319999999999993          0.0000000000000000     
  -88.305000000000007          0.0000000000000000     
  -88.290000000000006          0.0000000000000000     
  -88.275000000000006          0.0000000000000000     
  -88.260000000000005          0.0000000000000000     
  -88.245000000000005          0.0000000000000000     
  -88.230000000000004          0.0000000000000000     
  -88.215000000000003          0.0000000000000000     
  -88.200000000000003          0.0000000000000000     
  -88.185000000000002          0.0000000000000000     
  -88.170000000000002          0.0000000000000000     
  -88.155000000000001          0.0000000000000000     
  -88.140000000000001          0.0000000000000000     
  -88.125000000000000          0.0000000000000000     
  -88.109999999999999          0.0000000000000000     
  -88.094999999999999          0.0000000000000000     
  -88.079999999999998          0.0000000000000000     
  -88.064999999999998          0.0000000000000000     
  -88.049999999999997          0.0000000000000000     
  -88.034999999999997          0.0000000000000000     
  -88.019999999999996          0.0000000000000000     
  -88.004999999999995          0.0000000000000000     
  -87.989999999999995          0.0000000000000000     
  -87.974999999999994          0.0000000000000000     
  -87.959999999999994          0.0000000000000000     
  -87.944999999999993          0.0000000000000000     
  -87.930000000000007          0.0000000000000000     
  -87.915000000000006          0.0000000000000000     
  -87.900000000000006          0.0000000000000000     
  -87.885000000000005          0.0000000000000000     
  -87.870000000000005         -1.4189329647192663E-038
  -87.855000000000004         -3.2481843366728753E-038
  -87.840000000000003         -5.5391943811877266E-038
  -87.825000000000003         -8.3404611973350236E-038
  -87.810000000000002         -1.1692262867394240E-037
  -87.795000000000002         -1.5537849606157150E-037
  -87.780000000000001         -1.9778626053673859E-037
  -87.765000000000001         -2.4347450955844094E-037
  -87.750000000000000         -2.9136840236299054E-037
  -87.734999999999999         -3.4004085659431902E-037
  -87.719999999999999         -3.8728517469313393E-037
  -87.704999999999998         -4.3037171693403224E-037
  -87.689999999999998         -4.6751460129175213E-037
  -87.674999999999997         -4.9582437275363125E-037
  -87.659999999999997         -5.0985587695738394E-037
  -87.644999999999996         -4.9743351180618472E-037
  -87.629999999999995         -4.4393498566372158E-037
  -87.614999999999995         -3.3744782665360609E-037
  -87.599999999999994         -1.8214784814758763E-037
  -87.584999999999994          2.8289819774344061E-038
  -87.569999999999993          3.0213577797588357E-037
  -87.555000000000007          6.4617159075695235E-037
  -87.540000000000006          1.0996725796237443E-036
  -87.525000000000006          1.6811002352724146E-036
  -87.510000000000005          2.4016589366497467E-036
  -87.495000000000005          3.2804726186827268E-036
  -87.480000000000004          4.3372233142403248E-036
  -87.465000000000003          5.5916176293613809E-036
  -87.450000000000003          7.0391204689582804E-036
  -87.435000000000002          8.6798699450076673E-036
  -87.420000000000002          1.0533268099734951E-035
  -87.405000000000001          1.2623592507507274E-035
  -87.390000000000001          1.4650086223196097E-035
  -87.375000000000000          1.6540151134694087E-035
  -87.359999999999999          1.8198355812196816E-035
  -87.344999999999999          1.9595835211318125E-035
  -87.329999999999998          2.0822675649000122E-035
  -87.314999999999998          2.1791426774026359E-035
  -87.299999999999997          2.2491328049120450E-035
  -87.284999999999997          2.2860615798327262E-035
  -87.269999999999996          2.2809832203881520E-035
  -87.254999999999995          2.2313666542084306E-035
  -87.239999999999995          2.1201895981088272E-035
  -87.224999999999994          1.9265296301771475E-035
  -87.209999999999994          1.6246527224743695E-035
  -87.194999999999993          1.1998632584602173E-035
  -87.180000000000007          6.0365781861347848E-036
  -87.165000000000006         -2.2836033301414284E-036
  -87.150000000000006         -1.3165641479072425E-035
  -87.135000000000005         -2.7035296741551266E-035
  -87.120000000000005         -4.4416289374279038E-035
  -87.105000000000004         -6.5527674299255473E-035
  -87.090000000000003         -9.0903486406076308E-035
  -87.075000000000003         -1.2086490312339859E-034
  -87.060000000000002         -1.5568294247982157E-034
  -87.045000000000002         -1.9556676555756358E-034
  -87.030000000000001         -2.4070271805776620E-034
  -87.015000000000001         -2.9094782359234847E-034
  -87.000000000000000         -3.4609331711966923E-034
  -86.984999999999999         -4.0578547126740194E-034
  -86.969999999999999         -4.6946980626861869E-034
  -86.954999999999998         -5.3636870505960167E-034
  -86.939999999999998         -6.0544373776754442E-034
  -86.924999999999997         -6.7539589129929215E-034
  -86.909999999999997         -7.4462488621654377E-034
  -86.894999999999996         -8.1121122289635303E-034
  -86.879999999999995         -8.7289593180422568E-034
  -86.864999999999995         -9.2706362984507826E-034
  -86.849999999999994         -9.7074105099529967E-034
  -86.834999999999994         -1.0005765669871079E-033
  -86.819999999999993         -1.0128402791440460E-033
  -86.805000000000007         -1.0034321917401406E-033
  -86.790000000000006         -9.6790461986096396E-034
  -86.775000000000006         -9.0149166859790098E-034
  -86.760000000000005         -7.9915570180920505E-034
  -86.745000000000005         -6.5563955059956389E-034
  -86.730000000000004         -4.6559196060785135E-034
  -86.715000000000003         -2.2358880600673991E-034
  -86.700000000000003          7.5726654735792013E-035
  -86.685000000000002          4.3743859539916909E-034
  -86.670000000000002          8.6629984729267796E-034
  -86.655000000000001          1.3665118154889246E-033
  -86.640000000000001          1.9415425297470713E-033
  -86.625000000000000          2.5939360169816868E-033
  -86.609999999999999          3.3250911154702495E-033
  -86.594999999999999          4.1350467634631305E-033
  -86.579999999999998          5.0222610429798370E-033
  -86.564999999999998          5.9833907746182337E-033
  -86.549999999999997          7.0130823162942941E-033
  -86.534999999999997          8.1037706271765077E-033
  -86.519999999999996          9.2454974334034864E-033
  -86.504999999999995          1.0425756209766451E-032
  -86.489999999999995          1.1629358834568807E-032
  -86.474999999999994          1.2838342284762052E-032
  -86.459999999999994          1.4031909861228232E-032
  -86.444999999999993          1.5186406944208957E-032
  -86.430000000000007          1.6275349645980199E-032
  -86.415000000000006          1.7269493136461440E-032
  -86.400000000000006          1.8136940376443115E-032
  -86.385000000000005          1.8843294931852228E-032
  -86.370000000000005          1.9351857869056105E-032
  -86.355000000000004          1.9623858445628752E-032
  -86.340000000000003          1.9618709780372150E-032
  -86.325000000000003          1.9294307135007785E-032
  -86.310000000000002          1.8607318849028469E-032
  -86.295000000000002          1.7513515478116577E-032
  -86.280000000000001          1.5968093055090515E-032
  -86.265000000000001          1.3925990473379451E-032
  -86.250000000000000          1.1342214217337723E-032
  -86.234999999999999          8.1721447254600246E-033
  -86.219999999999999          4.3718346720729257E-033
  -86.204999999999998         -1.0169396779392945E-034
  -86.189999999999998         -5.2901565728742210E-033
  -86.174999999999997         -1.1233702864445379E-032
  -86.159999999999997         -1.7970584415914745E-032
  -86.144999999999996         -2.5536777231889235E-032
  -86.129999999999995         -3.3965518415138349E-032
  -86.114999999999995         -4.3286756622985162E-032
  -86.099999999999994         -5.3526405628393551E-032
  -86.084999999999994         -6.4705480331620341E-032
  -86.069999999999993         -7.6838897755977468E-032
  -86.055000000000007         -8.9934057638403358E-032
  -86.040000000000006         -1.0398904980057792E-031
  -86.025000000000006         -1.1899042658712776E-031
  -86.010000000000005         -1.3491056975828030E-031
  -85.995000000000005         -1.5170454016500360E-031
  -85.980000000000004         -1.6930633379949899E-031
  -85.965000000000003         -1.8762470879025565E-031
  -85.950000000000003         -2.0653830710049468E-031
  -85.935000000000002         -2.2589030602887288E-031
  -85.920000000000002         -2.4548257600255916E-031
  -85.905000000000001         -2.6506929764290956E-031
  -85.890000000000001         -2.8435043777182020E-031
  -85.875000000000000         -3.0296476697528338E-031
  -85.859999999999999         -3.2048315928558793E-031
  -85.844999999999999         -3.3640184484374545E-031
  -85.829999999999998         -3.5013636785852709E-031
  -85.814999999999998         -3.6101615582256277E-031
  -85.799999999999997         -3.6828035826233926E-031
  -85.784999999999997         -3.7107511959130627E-031
  -85.769999999999996         -3.6845287381326594E-031
  -85.754999999999995         -3.5937401372435105E-031
  -85.739999999999995         -3.4271138130144513E-031
  -85.724999999999994         -3.1725800245501086E-031
  -85.709999999999994         -2.8173877144293727E-031
  -85.694999999999993         -2.3482610845529270E-031
  -85.680000000000007         -1.7516018987210241E-031
  -85.665000000000006         -1.0137418612706076E-031
  -85.650000000000006         -1.2124417545733644E-032
  -85.635000000000005          9.3874138378207042E-032
  -85.620000000000005          2.1780718369465254E-031
  -85.605000000000004          3.6071527628852630E-031
  -85.590000000000003          5.2344326158217957E-031
  -85.575000000000003          7.0658528144029196E-031
  -85.560000000000002          9.1042620516384175E-031
  -85.545000000000002          1.1348800806058968E-030
  -85.530000000000001          1.3794265399272351E-030
  -85.515000000000001          1.6430471348223043E-030
  -85.500000000000000          1.9241625651208875E-030
  -85.484999999999999          2.2205710828841207E-030
  -85.469999999999999          2.5293931971502294E-030
  -85.454999999999998          2.8470206104599297E-030
  -85.439999999999998          3.1690737129807018E-030
  -85.424999999999997          3.4903703613768328E-030
  -85.409999999999997          3.8049051901088417E-030
  -85.394999999999996          4.1058441571396920E-030
  -85.379999999999995          4.3855354525223670E-030
  -85.364999999999995          4.6355369579479053E-030
  -85.349999999999994          4.8466655234685870E-030
  -85.334999999999994          5.0090665567635025E-030
  -85.319999999999993          5.1123046772628882E-030
  -85.305000000000007          5.1454788205549583E-030
  -85.290000000000006          5.0973591599678894E-030
  -85.275000000000006          4.9565496069088776E-030
  -85.260000000000005          4.7116698714291942E-030
  -85.245000000000005          4.3515627253881223E-030
  -85.230000000000004          3.8655193212101228E-030
  -85.215000000000003          3.2435240708679977E-030
  -85.200000000000003          2.4765160758265125E-030
  -85.185000000000002          1.5566647569577777E-030
  -85.170000000000002          4.7765493543120950E-031
  -85.155000000000001         -7.6501896456034578E-031
  -85.140000000000001         -2.1737553746705319E-030
  -85.125000000000000         -3.7485480412694025E-030
  -85.109999999999999         -5.4866904121240763E-030
  -85.094999999999999         -7.3824882045200739E-030
  -85.079999999999998         -9.4269854680578026E-030
  -85.064999999999998         -1.1607697888494241E-029
  -85.049999999999997         -1.3908375431923622E-029
  -85.034999999999997         -1.6308776273703882E-029
  -85.019999999999996         -1.8784477967044145E-029
  -85.004999999999995         -2.1306708924134588E-029
  -84.989999999999995         -2.3842224283942996E-029
  -84.974999999999994         -2.6353209615717541E-029
  -84.959999999999994         -2.8797232770738172E-029
  -84.944999999999993         -3.1127249900847693E-029
  -84.930000000000007         -3.3291655111333140E-029
  -84.915000000000006         -3.5234400831547307E-029
  -84.900000000000006         -3.6895181380106568E-029
  -84.885000000000005         -3.8209700789523771E-029
  -84.870000000000005         -3.9110024890276194E-029
  -84.855000000000004         -3.9525047746963953E-029
  -84.840000000000003         -3.9381054390965626E-029
  -84.825000000000003         -3.8602424988574172E-029
  -84.810000000000002         -3.7112492481675287E-029
  -84.795000000000002         -3.4834553700968212E-029
  -84.780000000000001         -3.1693058025853282E-029
  -84.765000000000001         -2.7615018729969296E-029
  -84.750000000000000         -2.2531601873397639E-029
  -84.734999999999999         -1.6379986028764831E-029
  -84.719999999999999         -9.1054311512999713E-030
  -84.704999999999998         -6.6360925499400316E-031
  -84.689999999999998          8.9768151422013613E-030
  -84.674999999999997          1.9831363831931668E-029
  -84.659999999999997          3.1896695024816851E-029
  -84.644999999999996          4.5147345820506234E-029
  -84.629999999999995          5.9532306158863399E-029
  -84.614999999999995          7.4971481428326142E-029
  -84.599999999999994          9.1352123476978280E-029
  -84.584999999999994          1.0852523754949716E-028
  -84.569999999999993          1.2630218482636112E-028
  -84.555000000000007          1.4445151065797235E-028
  -84.540000000000006          1.6269609779945784E-028
  -84.525000000000006          1.8071095760976438E-028
  -84.510000000000005          1.9812162912239235E-028
  -84.495000000000005          2.1450348089579080E-028
  -84.480000000000004          2.2938208416228426E-028
  -84.465000000000003          2.4223480172027678E-028
  -84.450000000000003          2.5249394164453593E-028
  -84.435000000000002          2.5955136748099713E-028
  -84.420000000000002          2.6276514270507180E-028
  -84.405000000000001          2.6146795666515408E-028
  -84.390000000000001          2.5497781349381215E-028
  -84.375000000000000          2.4261088769016700E-028
  -84.359999999999999          2.2369661859583162E-028
  -84.344999999999999          1.9759524839446701E-028
  -84.329999999999998          1.6371735826365562E-028
  -84.314999999999998          1.2154570360564581E-028
  -84.299999999999997          7.0658830763294872E-029
  -84.284999999999997          1.0756378172397090E-029
  -84.269999999999996         -5.8314432321467978E-029
  -84.254999999999995         -1.3653149691060657E-028
  -84.239999999999995         -2.2367035372621503E-028
  -84.224999999999994         -3.1927715135836745E-028
  -84.209999999999994         -4.2264272629035399E-028
  -84.194999999999993         -5.3277895609008245E-028
  -84.180000000000007         -6.4839763436600085E-028
  -84.165000000000006         -7.6789354665771102E-028
  -84.150000000000006         -8.8933214448432459E-028
  -84.135000000000005         -1.0104435749616354E-027
  -84.120000000000005         -1.1286227770986166E-027
  -84.105000000000004         -1.2409381966304192E-027
  -84.090000000000003         -1.3441491675361201E-027
  -84.075000000000003         -1.4347322972789599E-027
  -84.060000000000002         -1.5089190224402590E-027
  -84.045000000000002         -1.5627434680785352E-027
  -84.030000000000001         -1.5921016700752937E-027
  -84.015000000000001         -1.5928218715779973E-027
  -84.000000000000000         -1.5607467602086917E-027
  -83.984999999999999         -1.4918255275153473E-027
  -83.969999999999999         -1.3822168099273865E-027
  -83.954999999999998         -1.2284000075064694E-027
  -83.939999999999998         -1.0272946916030459E-027
  -83.924999999999997         -7.7638593474748653E-028
  -83.909999999999997         -4.7385305906686476E-028
  -83.894999999999996         -1.1870040692818102E-028
  -83.879999999999995          2.8911338101412039E-028
  -83.864999999999995          7.4855027666826338E-028
  -83.849999999999994          1.2573749494442949E-027
  -83.834999999999994          1.8120479734386686E-027
  -83.819999999999993          2.4076323716836938E-027
  -83.805000000000007          3.0377194196964275E-027
  -83.790000000000006          3.6943742861059942E-027
  -83.775000000000006          4.3681084918553813E-027
  -83.760000000000005          5.0478777916785003E-027
  -83.745000000000005          5.7211124112003134E-027
  -83.730000000000004          6.3737819507759595E-027
  -83.715000000000003          6.9904963042198404E-027
  -83.700000000000003          7.5546412442737050E-027
  -83.685000000000002          8.0485575340914780E-027
  -83.670000000000002          8.4537539350911085E-027
  -83.655000000000001          8.7511645111951408E-027
  -83.640000000000001          8.9214413701822606E-027
  -83.625000000000000          8.9452836125217968E-027
  -83.609999999999999          8.8037970950873329E-027
  -83.594999999999999          8.4788911727252507E-027
  -83.579999999999998          7.9536977806106291E-027
  -83.564999999999998          7.2130082351586308E-027
  -83.549999999999997          6.2437319905372559E-027
  -83.534999999999997          5.0353584766680055E-027
  -83.519999999999996          3.5804262557603345E-027
  -83.504999999999995          1.8749833195683603E-027
  -83.489999999999995         -8.0964626340456800E-029
  -83.474999999999994         -2.2830258598398063E-027
  -83.459999999999994         -4.7220246969697684E-027
  -83.444999999999993         -7.3836410059994734E-027
  -83.430000000000007         -1.0248096641958031E-026
  -83.415000000000006         -1.3289894988683676E-026
  -83.400000000000006         -1.6477623358411475E-026
  -83.385000000000005         -1.9773833969302763E-026
  -83.370000000000005         -2.3134985397174834E-026
  -83.355000000000004         -2.6511488797819603E-026
  -83.340000000000003         -2.9847843492471699E-026
  -83.325000000000003         -3.3082857294194094E-026
  -83.310000000000002         -3.6149991634524142E-026
  -83.295000000000002         -3.8977811460708588E-026
  -83.280000000000001         -4.1490546066503370E-026
  -83.265000000000001         -4.3608779345465694E-026
  -83.250000000000000         -4.5250263303762535E-026
  -83.234999999999999         -4.6330851751007681E-026
  -83.219999999999999         -4.6765584984006412E-026
  -83.204999999999998         -4.6469894648528706E-026
  -83.189999999999998         -4.5360944186550536E-026
  -83.174999999999997         -4.3359095624499511E-026
  -83.159999999999997         -4.0389524272920253E-026
  -83.144999999999996         -3.6383950522680392E-026
  -83.129999999999995         -3.1282482574741350E-026
  -83.114999999999995         -2.5035590133165355E-026
  -83.099999999999994         -1.7606155135320220E-026
  -83.084999999999994         -8.9716149267214591E-027
  -83.069999999999993          8.7384044549415976E-028
  -83.055000000000007          1.1917033576054145E-026
  -83.040000000000006          2.4123565237628802E-026
  -83.025000000000006          3.7435609961416887E-026
  -83.010000000000005          5.1769798091985765E-026
  -82.995000000000005          6.7015219175698064E-026
  -82.980000000000004          8.3031603882844174E-026
  -82.965000000000003          9.9647757071039490E-026
  -82.950000000000003          1.1666032519006001E-025
  -82.935000000000002          1.3383287799844484E-025
  -82.920000000000002          1.5089558192577765E-025
  -82.905000000000001          1.6754528019137232E-025
  -82.890000000000001          1.8344634945791226E-025
  -82.875000000000000          1.9823215429374434E-025
  -82.859999999999999          2.1150738910369134E-025
  -82.844999999999999          2.2285123357267278E-025
  -82.829999999999998          2.3182159279307050E-025
  -82.814999999999998          2.3796013857895109E-025
  -82.799999999999997          2.4079865733116260E-025
  -82.784999999999997          2.3986632234880452E-025
  -82.769999999999996          2.3469812478015234E-025
  -82.754999999999995          2.2484448786493997E-025
  -82.739999999999995          2.0988186725277359E-025
  -82.724999999999994          1.8942426344196722E-025
  -82.709999999999994          1.6313580657617139E-025
  -82.694999999999993          1.3074393288668060E-025
  -82.680000000000007          9.2053183595298860E-026
  -82.665000000000006          4.6959395166169988E-026
  -82.650000000000006         -4.5361004275564801E-027
  -82.635000000000005         -6.2312418726247180E-026
  -82.620000000000005         -1.2611563665194234E-025
  -82.605000000000004         -1.9554616919312831E-025
  -82.590000000000003         -2.7004749963307493E-025
  -82.575000000000003         -3.4889663695214717E-025
  -82.560000000000002         -4.3119659699730214E-025
  -82.545000000000002         -5.1587184187998087E-025
  -82.530000000000001         -6.0166628317194191E-025
  -82.515000000000001         -6.8714522940562112E-025
  -82.500000000000000         -7.7070103135998466E-025
  -82.484999999999999         -8.5056294282184423E-025
  -82.469999999999999         -9.2481171451260369E-025
  -82.454999999999998         -9.9139906909185669E-025
  -82.439999999999998         -1.0481723037568682E-024
  -82.424999999999997         -1.0929036753112942E-024
  -82.409999999999997         -1.1233253072602373E-024
  -82.394999999999996         -1.1371688300707345E-024
  -82.379999999999995         -1.1322101490281284E-024
  -82.364999999999995         -1.1063182550045775E-024
  -82.349999999999994         -1.0575077823168668E-024
  -82.334999999999994         -9.8399521506590488E-025
  -82.319999999999993         -8.8425716423609669E-025
  -82.305000000000007         -7.5709002530130132E-025
  -82.290000000000006         -6.0166993165362856E-025
  -82.275000000000006         -4.1761211638655686E-025
  -82.260000000000005         -2.0502779656177075E-025
  -82.245000000000005          3.5422517049978551E-026
  -82.230000000000004          3.0248070223842833E-025
  -82.215000000000003          5.9424941294105396E-025
  -82.200000000000003          9.0815846637293552E-025
  -82.185000000000002          1.2409411155698429E-024
  -82.170000000000002          1.5886212057466229E-024
  -82.155000000000001          1.9465131003414888E-024
  -82.140000000000001          2.3092346972209572E-024
  -82.125000000000000          2.6707365179257276E-024
  -82.109999999999999          3.0243451936280829E-024
  -82.094999999999999          3.3628241088139781E-024
  -82.079999999999998          3.6784501180060732E-024
  -82.064999999999998          3.9631078146419071E-024
  -82.049999999999997          4.2084009576767598E-024
  -82.034999999999997          4.4057775060371304E-024
  -82.019999999999996          4.5466716135836767E-024
  -82.004999999999995          4.6226590347095432E-024
  -81.989999999999995          4.6256243628522690E-024
  -81.974999999999994          4.5479381297670090E-024
  -81.960000000000008          4.3826421878392612E-024
  -81.944999999999993          4.1236386422716673E-024
  -81.930000000000007          3.7658807554230758E-024
  -81.915000000000006          3.3055636539323795E-024
  -81.900000000000006          2.7403077388789791E-024
  -81.885000000000005          2.0693367711321373E-024
  -81.870000000000005          1.2936388975832564E-024
  -81.855000000000004          4.1611505560367369E-025
  -81.840000000000003         -5.5829475990669726E-025