  -90.000000000000000          0.0000000000000000     
  -89.984999999999999          0.0000000000000000     
  -89.969999999999999          0.0000000000000000     
  -89.954999999999998          0.0000000000000000     
  -89.939999999999998          0.0000000000000000     
  -89.924999999999997          0.0000000000000000     
  -89.909999999999997          0.0000000000000000     
  -89.894999999999996          0.0000000000000000     
  -89.879999999999995          0.0000000000000000     
  -89.864999999999995          0.0000000000000000     
  -89.849999999999994          0.0000000000000000     
  -89.834999999999994          0.0000000000000000     
  -89.819999999999993          0.0000000000000000     
  -89.805000000000007          0.0000000000000000     
  -89.790000000000006          0.0000000000000000     
  -89.775000000000006          0.0000000000000000     
  -89.760000000000005          0.0000000000000000     
  -89.745000000000005          0.0000000000000000     
  -89.730000000000004          0.0000000000000000     
  -89.715000000000003          0.0000000000000000     
  -89.700000000000003          0.0000000000000000     
  -89.685000000000002          0.0000000000000000     
  -89.670000000000002          0.0000000000000000     
  -89.655000000000001          0.0000000000000000     
  -89.640000000000001          0.0000000000000000     
  -89.625000000000000          0.0000000000000000     
  -89.609999999999999          0.0000000000000000     
  -89.594999999999999          0.0000000000000000     
  -89.579999999999998          0.0000000000000000     
  -89.564999999999998          0.0000000000000000     
  -89.549999999999997          0.0000000000000000     
  -89.534999999999997          0.0000000000000000     
  -89.519999999999996          0.0000000000000000     
  -89.504999999999995          0.0000000000000000     
  -89.489999999999995          0.0000000000000000     
  -89.474999999999994          0.0000000000000000     
  -89.459999999999994          0.0000000000000000     
  -89.444999999999993          0.0000000000000000     
  -89.430000000000007          0.0000000000000000     
  -89.415000000000006          0.0000000000000000     
  -89.400000000000006          0.0000000000000000     
  -89.385000000000005          0.0000000000000000     
  -89.370000000000005          0.0000000000000000     
  -89.355000000000004          0.0000000000000000     
  -89.340000000000003          0.0000000000000000     
  -89.325000000000003          0.0000000000000000     
  -89.310000000000002          0.0000000000000000     
  -89.295000000000002          0.0000000000000000     
  -89.280000000000001          0.0000000000000000     
  -89.265000000000001          0.0000000000000000     
  -89.250000000000000          0.0000000000000000     
  -89.234999999999999          0.0000000000000000     
  -89.219999999999999          0.0000000000000000     
  -89.204999999999998          0.0000000000000000     
  -89.189999999999998          0.0000000000000000     
  -89.174999999999997          0.0000000000000000     
  -89.159999999999997          0.0000000000000000     
  -89.144999999999996          0.0000000000000000     
  -89.129999999999995          0.0000000000000000     
  -89.114999999999995          0.0000000000000000     
  -89.099999999999994          0.0000000000000000     
  -89.084999999999994          0.0000000000000000     
  -89.069999999999993          0.0000000000000000     
  -89.055000000000007          0.0000000000000000     
  -89.040000000000006          0.0000000000000000     
  -89.025000000000006          0.0000000000000000     
  -89.010000000000005          0.0000000000000000     
  -88.995000000000005          0.0000000000000000     
  -88.980000000000004          0.0000000000000000     
  -88.965000000000003          0.0000000000000000     
  -88.950000000000003          0.0000000000000000     
  -88.935000000000002          0.0000000000000000     
  -88.920000000000002          0.0000000000000000     
  -88.905000000000001          0.0000000000000000     
  -88.890000000000001          0.0000000000000000     
  -88.875000000000000          0.0000000000000000     
  -88.859999999999999          0.0000000000000000     
  -88.844999999999999          0.0000000000000000     
  -88.829999999999998          0.0000000000000000     
  -88.814999999999998          0.0000000000000000     
  -88.799999999999997          0.0000000000000000     
  -88.784999999999997          0.0000000000000000     
  -88.769999999999996         -1.2930066795211809E-038
  -88.754999999999995         -7.1088487666522273E-038
  -88.739999999999995         -1.8218653519559071E-037
  -88.724999999999994         -3.5698472984322269E-037
  -88.709999999999994         -6.6844636209655450E-037
  -88.694999999999993         -1.1874231898647392E-036
  -88.680000000000007         -1.9411991668714440E-036
  -88.665000000000006         -2.9990726948625362E-036
  -88.650000000000006         -4.4949690742444250E-036
  -88.635000000000005         -6.4357009921559245E-036
  -88.620000000000005         -8.9036106297058970E-036
  -88.605000000000004         -1.1988481174952647E-035
  -88.590000000000003         -1.5793594557692482E-035
  -88.575000000000003         -2.0375781165821297E-035
  -88.560000000000002         -2.5661555383257170E-035
  -88.545000000000002         -3.1653402508114876E-035
  -88.530000000000001         -3.8389800178354985E-035
  -88.515000000000001         -4.5824348509543674E-035
  -88.500000000000000         -5.3930555830898615E-035
  -88.484999999999999         -6.2501074811250596E-035
  -88.469999999999999         -7.1111398739468556E-035
  -88.454999999999998         -7.9219462859761442E-035
  -88.439999999999998         -8.5934996653218158E-035
  -88.424999999999997         -9.0007665579366163E-035
  -88.409999999999997         -8.9639112514128615E-035
  -88.394999999999996         -8.2508298607045463E-035
  -88.379999999999995         -6.5455233311942347E-035
  -88.364999999999995         -3.4340698536408524E-035
  -88.349999999999994          1.6082949552001155E-035
  -88.334999999999994          9.2715882881628304E-035
  -88.319999999999993          2.0407316614244175E-034
  -88.305000000000007          3.6066749556557224E-034
  -88.290000000000006          5.7538671455900316E-034
  -88.275000000000006          8.6380026875824975E-034
  -88.260000000000005          1.2444871448434208E-033
  -88.245000000000005          1.7393409710163294E-033
  -88.230000000000004          2.3738265365001366E-033
  -88.215000000000003          3.1771595595230802E-033
  -88.200000000000003          4.1823681252654048E-033
  -88.185000000000002          5.4261895545971763E-033
  -88.170000000000002          6.9487408983180669E-033
  -88.155000000000001          8.7929240268132438E-033
  -88.140000000000001          1.1003411031491816E-032
  -88.125000000000000          1.3625218203202491E-032
  -88.109999999999999          1.6701699977655504E-032
  -88.094999999999999          2.0271884971350062E-032
  -88.079999999999998          2.4367048680857731E-032
  -88.064999999999998          2.9006378112719807E-032
  -88.049999999999997          3.4191633569726647E-032
  -88.034999999999997          3.9900695186931653E-032
  -88.019999999999996          4.6079875198596893E-032
  -88.004999999999995          5.2634963609975715E-032
  -87.989999999999995          5.9420886785761387E-032
  -87.974999999999994          6.6230037729919307E-032
  -87.959999999999994          7.2779316260469190E-032
  -87.944999999999993          7.8695920221519502E-032
  -87.930000000000007          8.3502205116028867E-032
  -87.915000000000006          8.6599779667239448E-032
  -87.900000000000006          8.7253342771353131E-032
  -87.885000000000005          8.4574784936436664E-032
  -87.870000000000005          7.7508177219561646E-032
  -87.855000000000004          6.4816582180188310E-032
  -87.840000000000003          4.5071688958727141E-032
  -87.825000000000003          1.6647411240430715E-032
  -87.810000000000002         -2.2281069303134287E-032
  -87.795000000000002         -7.3731343257728407E-032
  -87.780000000000001         -1.3989910917441290E-031
  -87.765000000000001         -2.2313299594992308E-031
  -87.750000000000000         -3.2589682798863893E-031
  -87.734999999999999         -4.5071735390753999E-031
  -87.719999999999999         -6.0011530379252957E-031
  -87.704999999999998         -7.7651797943850762E-031
  -87.689999999999998         -9.8215120290864317E-031
  -87.674999999999997         -1.2189093068591733E-030
  -87.659999999999997         -1.4882020851749263E-030
  -87.644999999999996         -1.7907776224607654E-030
  -87.629999999999995         -2.1265208143098582E-030
  -87.614999999999995         -2.4942295531792796E-030
  -87.599999999999994         -2.8913679686158877E-030
  -87.584999999999994         -3.3138020820867109E-030
  -87.569999999999993         -3.7555193810466151E-030
  -87.555000000000007         -4.2083401175257425E-030
  -87.540000000000006         -4.6616261616886993E-030
  -87.525000000000006         -5.1019945573711480E-030
  -87.510000000000005         -5.5130481928141462E-030
  -87.495000000000005         -5.8751343071047144E-030
  -87.480000000000004         -6.1651451263339362E-030
  -87.465000000000003         -6.3563737950093214E-030
  -87.450000000000003         -6.4184466675801989E-030
  -87.435000000000002         -6.3173391070817917E-030
  -87.420000000000002         -6.0155056358697397E-030
  -87.405000000000001         -5.4721353470326467E-030
  -87.390000000000001         -4.6435513843922636E-030
  -87.375000000000000         -3.4837736751591143E-030
  -87.359999999999999         -1.9452577046221001E-030
  -87.344999999999999          2.0172211866607963E-032
  -87.329999999999998          2.4601900579659081E-030
  -87.314999999999998          5.4206253726587101E-030
  -87.299999999999997          8.9439155943896432E-030
  -87.284999999999997          1.3067344394701252E-029
  -87.269999999999996          1.7821096211573500E-029
  -87.254999999999995          2.3226128322530134E-029
  -87.239999999999995          2.9291892830626343E-029
  -87.224999999999994          3.6013954078458960E-029
  -87.209999999999994          4.3371518041159679E-029
  -87.194999999999993          5.1324949682326118E-029
  -87.180000000000007          5.9813347485998107E-029
  -87.165000000000006          6.8752202248069042E-029
  -87.150000000000006          7.8031248460691677E-029
  -87.135000000000005          8.7512577502785735E-029
  -87.120000000000005          9.7029114951675621E-029
  -87.105000000000004          1.0638354326602779E-028
  -87.090000000000003          1.1534767585861881E-028
  -87.075000000000003          1.2366252931870828E-028
  -87.060000000000002          1.3103904563576798E-028
  -87.045000000000002          1.3715951859134694E-028
  -87.030000000000001          1.4167984468969392E-028
  -87.015000000000001          1.4423268890510350E-028
  -87.000000000000000          1.4443139672711565E-028
  -86.984999999999999          1.4187489324481173E-028
  -86.969999999999999          1.3615329241777752E-028
  -86.954999999999998          1.2685442116378985E-028
  -86.939999999999998          1.1357098141079728E-028
  -86.924999999999997          9.5908410298505612E-029
  -86.909999999999997          7.3493167695669881E-029
  -86.894999999999996          4.5981414921906198E-029
  -86.879999999999995          1.3067883053232573E-029
  -86.864999999999995         -2.5505228679734917E-029
  -86.849999999999994         -6.9939562132908078E-029
  -86.834999999999994         -1.2037221041640636E-028
  -86.819999999999993         -1.7686792088754763E-028
  -86.805000000000007         -2.3941191805253980E-028
  -86.790000000000006         -3.0790369244241016E-028
  -86.775000000000006         -3.8215156587944356E-028
  -86.760000000000005         -4.6186833406068326E-028
  -86.745000000000005         -5.4666789618052823E-028
  -86.730000000000004         -6.3606277529592975E-028
  -86.715000000000003         -7.2946277017543036E-028
  -86.700000000000003         -8.2617377566707289E-028
  -86.685000000000002         -9.2539720491941719E-028
  -86.670000000000002         -1.0262297486402970E-027
  -86.655000000000001         -1.1276625084283451E-027
  -86.640000000000001         -1.2285795041772863E-027
  -86.625000000000000         -1.3277551703670098E-027
  -86.609999999999999         -1.4238501190176915E-027
  -86.594999999999999         -1.5154048804174747E-027
  -86.579999999999998         -1.6008315253272122E-027
  -86.564999999999998         -1.6784023019937941E-027
  -86.549999999999997         -1.7462354805650569E-027
  -86.534999999999997         -1.8022783086097755E-027
  -86.519999999999996         -1.8442882333007054E-027
  -86.504999999999995         -1.8698102717377362E-027
  -86.489999999999995         -1.8761544775675422E-027
  -86.474999999999994         -1.8603716742662832E-027
  -86.459999999999994         -1.8192313069452442E-027
  -86.444999999999993         -1.7492014126794132E-027
  -86.430000000000007         -1.6464330204749326E-027
  -86.415000000000006         -1.5067515808808456E-027
  -86.400000000000006         -1.3256588919190415E-027
  -86.385000000000005         -1.0983471583728493E-027
  -86.370000000000005         -8.1972893999767267E-028
  -86.355000000000004         -4.8448655162406417E-028
  -86.340000000000003         -8.7143154046796882E-029
  -86.325000000000003          3.7783989021644663E-028
  -86.310000000000002          9.1593790370106206E-028
  -86.295000000000002          1.5324067010770336E-027
  -86.280000000000001          2.2320944498674914E-027
  -86.265000000000001          3.0192189366506437E-027
  -86.250000000000000          3.8971134646777386E-027
  -86.234999999999999          4.8679370014164342E-027
  -86.219999999999999          5.9323584223364162E-027
  -86.204999999999998          7.0892125398213303E-027
  -86.189999999999998          8.3351359098162987E-027
  -86.174999999999997          9.6641916606747532E-027
  -86.159999999999997          1.1067488929401425E-026
  -86.144999999999996          1.2532810386801098E-026
  -86.129999999999995          1.4044258636740824E-026
  -86.114999999999995          1.5581939593267059E-026
  -86.099999999999994          1.7121689768925544E-026
  -86.084999999999994          1.8634875978047084E-026
  -86.069999999999993          2.0088275158719023E-026
  -86.055000000000007          2.1444055883857773E-026
  -86.040000000000006          2.2659875428078013E-026
  -86.025000000000006          2.3689115501517885E-026
  -86.010000000000005          2.4481265895083910E-026
  -85.995000000000005          2.4982472985299155E-026
  -85.980000000000004          2.5136254639498587E-026
  -85.965000000000003          2.4884404632530957E-026
  -85.950000000000003          2.4168063463807880E-026
  -85.935000000000002          2.2928989471067130E-026
  -85.920000000000002          2.1110973233323800E-026
  -85.905000000000001          1.8661441485327984E-026
  -85.890000000000001          1.5533168884099352E-026
  -85.875000000000000          1.1686119968325960E-026
  -85.859999999999999          7.0893604512410593E-027
  -85.844999999999999          1.7230126172956356E-027
  -85.829999999999998         -4.4198016071207013E-027
  -85.814999999999998         -1.1331065538614440E-026
  -85.799999999999997         -1.8986087021961585E-026
  -85.784999999999997         -2.7341881997105337E-026
  -85.769999999999996         -3.6335789948119067E-026
  -85.754999999999995         -4.5884365723116321E-026
  -85.739999999999995         -5.5882629191944485E-026
  -85.724999999999994         -6.6203690845403592E-026
  -85.709999999999994         -7.6698875054762773E-026
  -85.694999999999993         -8.7198274739584228E-026
  -85.680000000000007         -9.7511897681226134E-026
  -85.665000000000006         -1.0743130587441131E-025
  -85.650000000000006         -1.1673190199125717E-025
  -85.635000000000005         -1.2517569655741986E-025
  -85.620000000000005         -1.3251469142582053E-025
  -85.605000000000004         -1.3849475012546156E-025
  -85.590000000000003         -1.4286001055211518E-025
  -85.575000000000003         -1.4535764278565806E-025
  -85.560000000000002         -1.4574298901190688E-025
  -85.545000000000002         -1.4378502391919669E-025
  -85.530000000000001         -1.3927187672471741E-025
  -85.515000000000001         -1.3201656274202839E-025
  -85.500000000000000         -1.2186253005929819E-025
  -85.484999999999999         -1.0868916923968950E-025
  -85.469999999999999         -9.2416990221049653E-026
  -85.454999999999998         -7.3012454088955120E-026
  -85.439999999999998         -5.0492336463593489E-026
  -85.424999999999997         -2.4927520811381943E-026
  -85.409999999999997          3.5538438002959241E-027
  -85.394999999999996          3.4763870579413493E-026
  -85.379999999999995          6.8453226324254460E-026
  -85.364999999999995          1.0431014072504944E-025
  -85.349999999999994          1.4196026538590404E-025
  -85.334999999999994          1.8096714452207728E-025
  -85.319999999999993          2.2083359854805360E-025
  -85.305000000000007          2.6100367774087851E-025
  -85.290000000000006          3.0086526301595542E-025
  -85.275000000000006          3.3975322137066659E-025
  -85.260000000000005          3.7695323925533439E-025
  -85.245000000000005          4.1170601339678030E-025
  -85.230000000000004          4.4321198396375625E-025
  -85.215000000000003          4.7063648681473185E-025
  -85.200000000000003          4.9311566995468350E-025
  -85.185000000000002          5.0976245929569017E-025
  -85.170000000000002          5.1967390492411327E-025
  -85.155000000000001          5.2193892179822910E-025
  -85.140000000000001          5.1564711512960603E-025
  -85.125000000000000          4.9989928209390528E-025
  -85.109999999999999          4.7381914613684602E-025
  -85.094999999999999          4.3656716204004679E-025
  -85.079999999999998          3.8735673687338909E-025
  -85.064999999999998          3.2547274357438678E-025
  -85.049999999999997          2.5029328857878954E-025
  -85.034999999999997          1.6131458559100060E-025
  -85.019999999999996          5.8179280620954842E-026
  -85.004999999999995         -5.9291500541606604E-026
  -84.989999999999995         -1.9106265358640140E-025
  -84.974999999999994         -3.3684602241589428E-025
  -84.959999999999994         -4.9605836765019075E-025
  -84.944999999999993         -6.6777647551114935E-025
  -84.930000000000007         -8.5069093550371634E-025
  -84.915000000000006         -1.0430589073692256E-024
  -84.900000000000006         -1.2426577755072170E-024
  -84.885000000000005         -1.4467408248533241E-024
  -84.870000000000005         -1.6519976992264000E-024
  -84.855000000000004         -1.8545210719552720E-024
  -84.840000000000003         -2.0497822897982925E-024
  -84.825000000000003         -2.2326187511688558E-024
  -84.810000000000002         -2.3972356810724346E-024
  -84.795000000000002         -2.5372255568063712E-024
  -84.780000000000001         -2.6456073537899123E-024
  -84.765000000000001         -2.7148896544366266E-024
  -84.750000000000000         -2.7371590005757894E-024
  -84.734999999999999         -2.7041966448663558E-024
  -84.719999999999999         -2.6076244900644258E-024
  -84.704999999999998         -2.4390825827269199E-024
  -84.689999999999998         -2.1904377669210094E-024
  -84.674999999999997         -1.8540234979393039E-024
  -84.659999999999997         -1.4229081536152395E-024
  -84.644999999999996         -8.9119144880821569E-025
  -84.629999999999995         -2.5432315986120779E-025
  -84.614999999999995          4.9056074669789894E-025
  -84.599999999999994          1.3442901771933003E-024
  -84.584999999999994          2.3053093253565775E-024
  -84.569999999999993          3.3693314224211463E-024
  -84.555000000000007          4.5290102012071360E-024
  -84.540000000000006          5.7736354944195874E-024
  -84.525000000000006          7.0888752771324450E-024
  -84.510000000000005          8.4565605049766586E-024
  -84.495000000000005          9.8545474579122217E-024
  -84.480000000000004          1.1256653053633944E-023
  -84.465000000000003          1.2632682852133585E-023
  -84.450000000000003          1.3948564373192840E-023
  -84.435000000000002          1.5166598743012101E-023
  -84.420000000000002          1.6245839347444968E-023
  -84.405000000000001          1.7142591180951247E-023
  -84.390000000000001          1.7811065601148291E-023
  -84.375000000000000          1.8204154990219921E-023
  -84.359999999999999          1.8274354144453728E-023
  -84.344999999999999          1.7974815770132258E-023
  -84.329999999999998          1.7260510109063684E-023
  -84.314999999999998          1.6089510781857320E-023
  -84.299999999999997          1.4424346895515168E-023
  -84.284999999999997          1.2233434037113989E-023
  -84.269999999999996          9.4925312998972471E-024
  -84.254999999999995          6.1862077756979135E-024
  -84.239999999999995          2.3092723653291815E-024
  -84.224999999999994         -2.1318616892647284E-024
  -84.209999999999994         -7.1179266576890192E-024
  -84.194999999999993         -1.2615700254565987E-023
  -84.180000000000007         -1.8577106338103069E-023
  -84.165000000000006         -2.4938546942121347E-023
  -84.150000000000006         -3.1620517509149026E-023
  -84.135000000000005         -3.8527531159774535E-023
  -84.120000000000005         -4.5548405838016023E-023
  -84.105000000000004         -5.2556911177263646E-023
  -84.090000000000003         -5.9412831884779800E-023
  -84.075000000000003         -6.5963431867539214E-023
  -84.060000000000002         -7.2045334876626995E-023
  -84.045000000000002         -7.7486840602856359E-023
  -84.030000000000001         -8.2110613114733621E-023
  -84.015000000000001         -8.5736735327883217E-023
  -84.000000000000000         -8.8186154749481700E-023
  -83.984999999999999         -8.9284362725519700E-023
  -83.969999999999999         -8.8865345056215266E-023
  -83.954999999999998         -8.6775684072721014E-023
  -83.939999999999998         -8.2878755377139908E-023
  -83.924999999999997         -7.7058962447864482E-023
  -83.909999999999997         -6.9225870270720198E-023
  -83.894999999999996         -5.9318174887040521E-023
  -83.879999999999995         -4.7307417350808698E-023
  -83.864999999999995         -3.3201375830550208E-023
  -83.849999999999994         -1.7046962306576735E-023
  -83.834999999999994          1.0673660784418007E-024
  -83.819999999999993          2.1009817685728971E-023
  -83.805000000000007          4.2604146592346883E-023
  -83.790000000000006          6.5629276698974835E-023
  -83.775000000000006          8.9819683735802679E-023
  -83.760000000000005          1.1486660438908329E-022
  -83.745000000000005          1.4042005578504993E-022
  -83.730000000000004          1.6609169747728040E-022
  -83.715000000000003          1.9145849807218451E-022
  -83.700000000000003          2.1606718440450950E-022
  -83.685000000000002          2.3943937859955487E-022
  -83.670000000000002          2.6107749244185617E-022
  -83.655000000000001          2.8047120234549506E-022
  -83.640000000000001          2.9710437870829079E-022
  -83.625000000000000          3.1046253275874545E-022
  -83.609999999999999          3.2004056632557688E-022
  -83.594999999999999          3.2535082452983920E-022
  -83.579999999999998          3.2593124945123909E-022
  -83.564999999999998          3.2135360952509915E-022
  -83.549999999999997          3.1123172893932111E-022
  -83.534999999999997          2.9522974227489806E-022
  -83.519999999999996          2.7306986951899634E-022
  -83.504999999999995          2.4454034253933119E-022
  -83.489999999999995          2.0950286455288649E-022
  -83.474999999999994          1.6789974142849800E-022
  -83.459999999999994          1.1976078579749583E-022
  -83.444999999999993          6.5209722604254851E-023
  -83.430000000000007          4.4702720126348321E-024
  -83.415000000000006         -6.2128217338295358E-023
  -83.400000000000006         -1.3414567071508822E-022
  -83.385000000000005         -2.1102664089918588E-022
  -83.370000000000005         -2.9209633627226227E-022
  -83.355000000000004         -3.7655728787889861E-022
  -83.340000000000003         -4.6348695760031877E-022
  -83.325000000000003         -5.5183599634951050E-022
  -83.310000000000002         -6.4042818096235308E-022
  -83.295000000000002         -7.2796124723473317E-022
  -83.280000000000001         -8.1300949000808845E-022
  -83.265000000000001         -8.9402866041790725E-022
  -83.250000000000000         -9.6936268067775374E-022
  -83.234999999999999         -1.0372530851665817E-021
  -83.219999999999999         -1.0958514402548261E-021
  -83.204999999999998         -1.1432356011499383E-021
  -83.189999999999998         -1.1774285940710131E-021
  -83.174999999999997         -1.1964231529783846E-021
  -83.159999999999997         -1.1982088816323153E-021
  -83.144999999999996         -1.1808053731292404E-021
  -83.129999999999995         -1.1422992674316517E-021
  -83.114999999999995         -1.0808861556593828E-021
  -83.099999999999994         -9.9491773503907979E-022
  -83.084999999999994         -8.8295249795052697E-022
  -83.069999999999993         -7.4381081335049303E-022
  -83.055000000000007         -5.7663349180633471E-022
  -83.040000000000006         -3.8094259720545843E-022
  -83.025000000000006         -1.5670364685997515E-022
  -83.010000000000005          9.5611822357184678E-023
  -82.995000000000005          3.7496505102780052E-022
  -82.980000000000004          6.7969194653863952E-022
  -82.965000000000003          1.0074498444366849E-021
  -82.950000000000003          1.3551710476772623E-021
  -82.935000000000002          1.7190259079336749E-021
  -82.920000000000002          2.0943968752288659E-021
  -82.905000000000001          2.4758666839545017E-021
  -82.890000000000001          2.8572221898904145E-021
  -82.875000000000000          3.2314763825793023E-021
  -82.859999999999999          3.5909101886438177E-021
  -82.844999999999999          3.9271377011170994E-021
  -82.829999999999998          4.2311924114060432E-021
  -82.814999999999998          4.4936400984422831E-021
  -82.799999999999997          4.7047145380014381E-021
  -82.784999999999997          4.8544798692100686E-021
  -82.769999999999996          4.9330155792725068E-021
  -82.754999999999995          4.9306241064175622E-021
  -82.739999999999995          4.8380618688586682E-021
  -82.724999999999994          4.6467840262446665E-021
  -82.709999999999994          4.3492053969819313E-021
  -82.694999999999993          3.9389722807696464E-021
  -82.680000000000007          3.4112350889286495E-021
  -82.665000000000006          2.7629227922658024E-021
  -82.650000000000006          1.9930080793123412E-021
  -82.635000000000005          1.1027566616134750E-021
  -82.620000000000005          9.5955936105816567E-023
  -82.605000000000004         -1.0208880962680121E-021
  -82.590000000000003         -2.2383913291952319E-021
  -82.575000000000003         -3.5441769074152725E-021
  -82.560000000000002         -4.9228143582123252E-021
  -82.545000000000002         -6.3558171238584320E-021
  -82.530000000000001         -7.8217067812020572E-021
  -82.515000000000001         -9.2961481451421596E-021
  -82.500000000000000         -1.0752154852090980E-020
  -82.484999999999999         -1.2160378953967792E-020
  -82.469999999999999         -1.3489474021407244E-020
  -82.454999999999998         -1.4706531352285509E-020
  -82.439999999999998         -1.5777602614158103E-020
  -82.424999999999997         -1.6668277416660245E-020
  -82.409999999999997         -1.7344331161947554E-020
  -82.394999999999996         -1.7772434287447825E-020
  -82.379999999999995         -1.7920892204768353E-020
  -82.364999999999995         -1.7760422397107333E-020
  -82.349999999999994         -1.7264954134885141E-020
  -82.334999999999994         -1.6412421729027070E-020
  -82.319999999999993         -1.5185548090723273E-020
  -82.305000000000007         -1.3572591132684618E-020
  -82.290000000000006         -1.1568047357339500E-020
  -82.275000000000006         -9.1732730500868215E-021
  -82.260000000000005         -6.3970319633343835E-021
  -82.245000000000005         -3.2559266782636334E-021
  -82.230000000000004          2.2528557312920706E-022
  -82.215000000000003          4.0135158750242359E-021
  -82.200000000000003          8.0673156074385177E-021
  -82.185000000000002          1.2337008671935573E-020
  -82.170000000000002          1.6764989693669325E-020
  -82.155000000000001          2.1286203825519321E-020
  -82.140000000000001          2.5828779250453645E-020
  -82.125000000000000          3.0314854362141476E-020
  -82.109999999999999          3.4661562465311192E-020
  -82.094999999999999          3.8782159455569832E-020
  -82.079999999999998          4.2587325982633006E-020
  -82.064999999999998          4.5986550392911515E-020
  -82.049999999999997          4.8889663537288541E-020
  -82.034999999999997          5.1208431740033674E-020
  -82.019999999999996          5.2858220853550813E-020
  -82.004999999999995          5.3759676468997420E-020
  -81.989999999999995          5.3840420282775106E-020
  -81.974999999999994          5.3036710920103271E-020
  -81.960000000000008          5.1295062753327264E-020
  -81.944999999999993          4.8573761322649979E-020
  -81.930000000000007          4.4844259203415532E-020
  -81.915000000000006          4.0092452319945041E-020
  -81.900000000000006          3.4319762388916332E-020
  -81.885000000000005          2.7544035185810381E-020
  -81.870000000000005          1.9800232016204627E-020
  -81.855000000000004          1.1140893389280390E-020
  -81.840000000000003          1.6363478324599360E-021