  -90.000000000000000          0.0000000000000000     
  -89.984999999999999          0.0000000000000000     
  -89.969999999999999         -9.4624462887611671E-014
  -89.954999999999998         -4.7111929158197285E-013
  -89.939999999999998         -1.4047140187156693E-012
  -89.924999999999997         -3.2510960069898065E-012
  -89.909999999999997         -6.4356783791019723E-012
  -89.894999999999996         -1.1439359008658112E-011
  -89.879999999999995         -1.8780530949835672E-011
  -89.864999999999995         -2.8993266121268846E-011
  -89.849999999999994         -4.2601786681695231E-011
  -89.834999999999994         -6.0091660813998971E-011
  -89.819999999999993         -8.1878392954592982E-011
  -89.805000000000007         -1.0827446578209887E-010
  -89.790000000000006         -1.3945615495725150E-010
  -89.775000000000006         -1.7543172470269042E-010
  -89.760000000000005         -2.1601270772109160E-010
  -89.745000000000005         -2.6079030601700026E-010
  -89.730000000000004         -3.0911842530123579E-010
  -89.715000000000003         -3.6010547321829733E-010
  -89.700000000000003         -4.1261580263629583E-010
  -89.685000000000002         -4.6528234043385908E-010
  -89.670000000000002         -5.1653048505073684E-010
  -89.655000000000001         -5.6461318953537898E-010
  -89.640000000000001         -6.0765714682275984E-010
  -89.625000000000000         -6.4371774577409724E-010
  -89.609999999999999         -6.7084171551101690E-010
  -89.594999999999999         -6.8713479350890339E-010
  -89.579999999999998         -6.9083100351363669E-010
  -89.564999999999998         -6.8036121181336284E-010
  -89.549999999999997         -6.5441735364046849E-010
  -89.534999999999997         -6.1200866596777814E-010
  -89.519999999999996         -5.5250803931983228E-010
  -89.504999999999995         -4.7568482486326502E-010
  -89.489999999999995         -3.8172276450865184E-010
  -89.474999999999994         -2.7122190604522700E-010
  -89.459999999999994         -1.4518340696323406E-010
  -89.444999999999993         -4.9781051676689447E-012
  -89.430000000000007          1.4770033807121052E-010
  -89.415000000000006          3.1089569807463135E-010
  -89.400000000000006          4.8246023842679620E-010
  -89.385000000000005          6.6013378097196096E-010
  -89.370000000000005          8.4162665725528996E-010
  -89.355000000000004          1.0247039883282127E-009
  -89.340000000000003          1.2072663979623144E-009
  -89.325000000000003          1.3874243975919853E-009
  -89.310000000000002          1.5635636119171181E-009
  -89.295000000000002          1.7343971814298698E-009
  -89.280000000000001          1.8990049532874309E-009
  -89.265000000000001          2.0568562408840307E-009
  -89.250000000000000          2.2078168182559921E-009
  -89.234999999999999          2.3521409264759541E-009
  -89.219999999999999          2.4904474038578428E-009
  -89.204999999999998          2.6236819383740340E-009
  -89.189999999999998          2.7530684398868743E-009
  -89.174999999999997          2.8800499762837717E-009
  -89.159999999999997          3.0062237144079518E-009
  -89.144999999999996          3.1332700878294872E-009
  -89.129999999999995          3.2628808543933019E-009
  -89.114999999999995          3.3966867096779652E-009
  -89.099999999999994          3.5361875649897456E-009
  -89.084999999999994          3.6826866001149483E-009
  -89.069999999999993          3.8372296451427701E-009
  -89.055000000000007          4.0005523338493276E-009
  -89.040000000000006          4.1730325861522033E-009
  -89.025000000000006          4.3546539707506327E-009
  -89.010000000000005          4.5449755070592346E-009
  -88.995000000000005          4.7431112371043582E-009
  -88.980000000000004          4.9477204555614662E-009
  -88.965000000000003          5.1570037129522461E-009
  -88.950000000000003          5.3687130296964369E-009
  -88.935000000000002          5.5801701037694329E-009
  -88.920000000000002          5.7882965087685534E-009
  -88.905000000000001          5.9896523296742998E-009
  -88.890000000000001          6.1804894535555377E-009
  -88.875000000000000          6.3568128538804558E-009
  -88.859999999999999          6.5144560856822409E-009
  -88.844999999999999          6.6491661065981589E-009
  -88.829999999999998          6.7566965356036235E-009
  -88.814999999999998          6.8329102376196715E-009
  -88.799999999999997          6.8738872371909565E-009
  -88.784999999999997          6.8760348526097914E-009
  -88.769999999999996          6.8362009386646605E-009
  -88.754999999999995          6.7517795798721636E-009
  -88.739999999999995          6.6208114546384422E-009
  -88.724999999999994          6.4420708767443102E-009
  -88.709999999999994          6.2151377377972494E-009
  -88.694999999999993          5.9404512420258015E-009
  -88.680000000000007          5.6193347752753198E-009
  -88.665000000000006          5.2540012340784870E-009
  -88.650000000000006          4.8475268243919345E-009
  -88.635000000000005          4.4037959945342209E-009
  -88.620000000000005          3.9274192786820095E-009
  -88.605000000000004          3.4236227186568158E-009
  -88.590000000000003          2.8981148592066575E-009
  -88.575000000000003          2.3569315388272116E-009
  -88.560000000000002          1.8062678019958867E-009
  -88.545000000000002          1.2522988201979501E-009
  -88.530000000000001          7.0099936966272480E-010
  -88.515000000000001          1.5796702834691700E-010
  -88.500000000000000         -3.7174358036295985E-010
  -88.484999999999999         -8.8376844731286042E-010
  -88.469999999999999         -1.3745579119373019E-009
  -88.454999999999998         -1.8414718638837257E-009
  -88.439999999999998         -2.2828414714126666E-009
  -88.424999999999997         -2.6979956047057385E-009
  -88.409999999999997         -3.0872502332357499E-009
  -88.394999999999996         -3.4518603531097369E-009
  -88.379999999999995         -3.7939389407881663E-009
  -88.364999999999995         -4.1163414898903739E-009
  -88.349999999999994         -4.4225267892272768E-009
  -88.334999999999994         -4.7163921657045194E-009
  -88.319999999999993         -5.0020965147723473E-009
  -88.305000000000007         -5.2838715625114219E-009
  -88.290000000000006         -5.5658331277186335E-009
  -88.275000000000006         -5.8517977130634335E-009
  -88.260000000000005         -6.1451097543852029E-009
  -88.245000000000005         -6.4484857453805944E-009
  -88.230000000000004         -6.7638801226621581E-009
  -88.215000000000003         -7.0923804607048169E-009
  -88.200000000000003         -7.4341288680557227E-009
  -88.185000000000002         -7.7882749138780127E-009
  -88.170000000000002         -8.1529618611853039E-009
  -88.155000000000001         -8.5253413217856178E-009
  -88.140000000000001         -8.9016234383620940E-009
  -88.125000000000000         -9.2771479387465661E-009
  -88.109999999999999         -9.6464898291515055E-009
  -88.094999999999999         -1.0003580186435101E-008
  -88.079999999999998         -1.0341846490291573E-008
  -88.064999999999998         -1.0654375159901974E-008
  -88.049999999999997         -1.0934076755120259E-008
  -88.034999999999997         -1.1173862723978800E-008
  -88.019999999999996         -1.1366827479264430E-008
  -88.004999999999995         -1.1506426922380797E-008
  -87.989999999999995         -1.1586655190853890E-008
  -87.974999999999994         -1.1602210747696518E-008
  -87.959999999999994         -1.1548657141702279E-008
  -87.944999999999993         -1.1422562451457452E-008
  -87.930000000000007         -1.1221623630319755E-008
  -87.915000000000006         -1.0944768646936609E-008
  -87.900000000000006         -1.0592234644946075E-008
  -87.885000000000005         -1.0165612351897835E-008
  -87.870000000000005         -9.6678691718921073E-009
  -87.855000000000004         -9.1033269811191531E-009
  -87.840000000000003         -8.4776159425814512E-009
  -87.825000000000003         -7.7975874646085686E-009
  -87.810000000000002         -7.0711911881460310E-009
  -87.795000000000002         -6.3073182232642466E-009
  -87.780000000000001         -5.5156124112443194E-009
  -87.765000000000001         -4.7062531649544326E-009
  -87.750000000000000         -3.8897147724981096E-009
  -87.734999999999999         -3.0765061609372424E-009
  -87.719999999999999         -2.2769026664093417E-009
  -87.704999999999998         -1.5006725861965720E-009
  -87.689999999999998         -7.5681166888941220E-010
  -87.674999999999997         -5.3291475399230848E-011
  -87.659999999999997          6.0316818206729295E-010
  -87.644999999999996          1.2072943755825349E-009
  -87.629999999999995          1.7554158127097708E-009
  -87.614999999999995          2.2455712844760001E-009
  -87.599999999999994          2.6775663908296110E-009
  -87.584999999999994          3.0529740957518925E-009
  -87.569999999999993          3.3750799932619202E-009
  -87.555000000000007          3.6487723953371187E-009
  -87.540000000000006          3.8803773527718022E-009
  -87.525000000000006          4.0774490450701251E-009
  -87.510000000000005          4.2485184259533071E-009
  -87.495000000000005          4.4028087842207242E-009
  -87.480000000000004          4.5499319867303711E-009
  -87.465000000000003          4.6995713987030285E-009
  -87.450000000000003          4.8611670244724792E-009
  -87.435000000000002          5.0436099741091311E-009
  -87.420000000000002          5.2549613549501828E-009
  -87.405000000000001          5.5022013611960574E-009
  -87.390000000000001          5.7910214401601934E-009
  -87.375000000000000          6.1256613115290293E-009
  -87.359999999999999          6.5087992773271708E-009
  -87.344999999999999          6.9414967107661596E-009
  -87.329999999999998          7.4231976121552634E-009
  -87.314999999999998          7.9517823436958679E-009
  -87.299999999999997          8.5236688818213224E-009
  -87.284999999999997          9.1339629193498695E-009
  -87.269999999999996          9.7766399420606831E-009
  -87.254999999999995          1.0444759723782227E-008
  -87.239999999999995          1.1130704358208732E-008
  -87.224999999999994          1.1826422507965617E-008
  -87.209999999999994          1.2523678982745423E-008
  -87.194999999999993          1.3214302541086909E-008
  -87.180000000000007          1.3890412375872074E-008
  -87.165000000000006          1.4544631277146891E-008
  -87.150000000000006          1.5170272149589437E-008
  -87.135000000000005          1.5761484561949146E-008
  -87.120000000000005          1.6313382644739249E-008
  -87.105000000000004          1.6822129467186642E-008
  -87.090000000000003          1.7284978781617610E-008
  -87.075000000000003          1.7700296339739907E-008
  -87.060000000000002          1.8067531470933318E-008
  -87.045000000000002          1.8387172673328678E-008
  -87.030000000000001          1.8660658795965901E-008
  -87.015000000000001          1.8890276010097296E-008
  -87.000000000000000          1.9079031687851966E-008
  -86.984999999999999          1.9230506964618144E-008
  -86.969999999999999          1.9348700419641318E-008
  -86.954999999999998          1.9437864651195014E-008
  -86.939999999999998          1.9502337522681046E-008
  -86.924999999999997          1.9546371632372939E-008
  -86.909999999999997          1.9573974441300379E-008
  -86.894999999999996          1.9588755506561029E-008
  -86.879999999999995          1.9593787925487050E-008
  -86.864999999999995          1.9591491096093705E-008
  -86.849999999999994          1.9583525912025834E-008
  -86.834999999999994          1.9570729037354795E-008
  -86.819999999999993          1.9553068497657478E-008
  -86.805000000000007          1.9529629469161591E-008
  -86.790000000000006          1.9498639147741414E-008
  -86.775000000000006          1.9457520039622977E-008
  -86.760000000000005          1.9402982331939711E-008
  -86.745000000000005          1.9331137579570168E-008
  -86.730000000000004          1.9237660353610408E-008
  -86.715000000000003          1.9117960547987423E-008
  -86.700000000000003          1.8967380555068303E-008
  -86.685000000000002          1.8781406652124133E-008
  -86.670000000000002          1.8555894598648592E-008
  -86.655000000000001          1.8287277470108165E-008
  -86.640000000000001          1.7972784149833387E-008
  -86.625000000000000          1.7610624070130143E-008
  -86.609999999999999          1.7200152413465730E-008
  -86.594999999999999          1.6741992681090778E-008
  -86.579999999999998          1.6238129063594897E-008
  -86.564999999999998          1.5691941968043466E-008
  -86.549999999999997          1.5108193807122916E-008
  -86.534999999999997          1.4492965938472935E-008
  -86.519999999999996          1.3853540536956643E-008
  -86.504999999999995          1.3198231840760855E-008
  -86.489999999999995          1.2536172988575345E-008
  -86.474999999999994          1.1877064665100079E-008
  -86.459999999999994          1.1230895324843004E-008
  -86.444999999999993          1.0607639211457354E-008
  -86.430000000000007          1.0016952600722107E-008
  -86.415000000000006          9.4678647144519346E-009
  -86.400000000000006          8.9684943915813164E-009
  -86.385000000000005          8.5257880755307269E-009
  -86.370000000000005          8.1452968814232918E-009
  -86.355000000000004          7.8310034012929464E-009
  -86.340000000000003          7.5851964709272579E-009
  -86.325000000000003          7.4084134382701450E-009
  -86.310000000000002          7.2994370547974086E-009
  -86.295000000000002          7.2553580920953209E-009
  -86.280000000000001          7.2716956900364949E-009
  -86.265000000000001          7.3425736601961944E-009
  -86.250000000000000          7.4609420863680498E-009
  -86.234999999999999          7.6188397812870789E-009
  -86.219999999999999          7.8076842768837196E-009
  -86.204999999999998          8.0185822426415143E-009
  -86.189999999999998          8.2426403480440058E-009
  -86.174999999999997          8.4712779013784711E-009
  -86.159999999999997          8.6965190604360032E-009
  -86.144999999999996          8.9112566215021616E-009
  -86.129999999999995          9.1094891629950325E-009
  -86.114999999999995          9.2865066747549463E-009
  -86.099999999999994          9.4390326665916291E-009
  -86.084999999999994          9.5653200915535308E-009
  -86.069999999999993          9.6651842085293538E-009
  -86.055000000000007          9.7399910359285968E-009
  -86.040000000000006          9.7925951791921761E-009
  -86.025000000000006          9.8272252557762840E-009
  -86.010000000000005          9.8493337929994595E-009
  -85.995000000000005          9.8654062696823530E-009
  -85.980000000000004          9.8827452887917389E-009
  -85.965000000000003          9.9092263283750981E-009
  -85.950000000000003          9.9530481634246826E-009
  -85.935000000000002          1.0022467300530025E-008
  -85.920000000000002          1.0125539517957804E-008
  -85.905000000000001          1.0269865846623816E-008
  -85.890000000000001          1.0462357202811745E-008
  -85.875000000000000          1.0709015008103506E-008
  -85.859999999999999          1.1014741119197424E-008
  -85.844999999999999          1.1383183284863208E-008
  -85.829999999999998          1.1816609912784770E-008
  -85.814999999999998          1.2315830133502459E-008
  -85.799999999999997          1.2880152056027327E-008
  -85.784999999999997          1.3507382767841136E-008
  -85.769999999999996          1.4193882513779954E-008
  -85.754999999999995          1.4934650849340869E-008
  -85.739999999999995          1.5723458091088105E-008
  -85.724999999999994          1.6553022064158540E-008
  -85.709999999999994          1.7415210606941400E-008
  -85.694999999999993          1.8301280491073157E-008
  -85.680000000000007          1.9202140322249761E-008
  -85.665000000000006          2.0108620546466227E-008
  -85.650000000000006          2.1011766548895139E-008
  -85.635000000000005          2.1903113989196754E-008
  -85.620000000000005          2.2774962360472273E-008
  -85.605000000000004          2.3620630784648711E-008
  -85.590000000000003          2.4434676504370145E-008
  -85.575000000000003          2.5213077847752174E-008
  -85.560000000000002          2.5953378113285908E-008
  -85.545000000000002          2.6654765505895739E-008
  -85.530000000000001          2.7318103335005617E-008
  -85.515000000000001          2.7945898040115935E-008
  -85.500000000000000          2.8542215702032081E-008
  -85.484999999999999          2.9112523947105728E-008
  -85.469999999999999          2.9663501877053022E-008
  -85.454999999999998          3.0202784273569705E-008
  -85.439999999999998          3.0738679157593651E-008
  -85.424999999999997          3.1279853374144295E-008
  -85.409999999999997          3.1835003966307340E-008
  -85.394999999999996          3.2412533101933150E-008
  -85.379999999999995          3.3020221223978297E-008
  -85.364999999999995          3.3664925069842866E-008
  -85.349999999999994          3.4352325428699260E-008
  -85.334999999999994          3.5086706873244111E-008
  -85.319999999999993          3.5870790782155382E-008
  -85.305000000000007          3.6705639416823033E-008
  -85.290000000000006          3.7590620394212237E-008
  -85.275000000000006          3.8523435108572812E-008
  -85.260000000000005          3.9500225312849579E-008
  -85.245000000000005          4.0515711674515842E-008
  -85.230000000000004          4.1563414043821467E-008
  -85.215000000000003          4.2635914354605120E-008
  -85.200000000000003          4.3725126630533850E-008
  -85.185000000000002          4.4822623834761544E-008
  -85.170000000000002          4.5919946956018975E-008
  -85.155000000000001          4.7008928305558584E-008
  -85.140000000000001          4.8081979286962451E-008
  -85.125000000000000          4.9132378165950286E-008
  -85.109999999999999          5.0154483233200153E-008
  -85.094999999999999          5.1143931756314487E-008
  -85.079999999999998          5.2097767877512524E-008
  -85.064999999999998          5.3014520773331242E-008
  -85.049999999999997          5.3894218865480070E-008
  -85.034999999999997          5.4738357846417784E-008
  -85.019999999999996          5.5549801203369498E-008
  -85.004999999999995          5.6332638109779509E-008
  -84.989999999999995          5.7092005789627365E-008
  -84.974999999999994          5.7833851485611376E-008
  -84.959999999999994          5.8564705085473179E-008
  -84.944999999999993          5.9291405563044464E-008
  -84.930000000000007          6.0020830972007388E-008
  -84.915000000000006          6.0759631992368668E-008
  -84.900000000000006          6.1513965476933663E-008
  -84.885000000000005          6.2289281288485654E-008
  -84.870000000000005          6.3090077162542002E-008
  -84.855000000000004          6.3919728177097568E-008
  -84.840000000000003          6.4780358854932274E-008
  -84.825000000000003          6.5672722371346026E-008
  -84.810000000000002          6.6596150816167210E-008
  -84.795000000000002          6.7548548088325333E-008
  -84.780000000000001          6.8526411212133098E-008
  -84.765000000000001          6.9524894286132621E-008
  -84.750000000000000          7.0537957697069942E-008
  -84.734999999999999          7.1558496017587458E-008
  -84.719999999999999          7.2578551169044658E-008
  -84.704999999999998          7.3589525584338844E-008
  -84.689999999999998          7.4582416687007935E-008
  -84.674999999999997          7.5548101108324772E-008
  -84.659999999999997          7.6477611798964062E-008
  -84.644999999999996          7.7362400929814612E-008
  -84.629999999999995          7.8194624109073629E-008
  -84.614999999999995          7.8967389072204242E-008
  -84.599999999999994          7.9674997266465653E-008
  -84.584999999999994          8.0313142802879156E-008
  -84.569999999999993          8.0879061670202645E-008
  -84.555000000000007          8.1371659632623050E-008
  -84.540000000000006          8.1791569073175197E-008
  -84.525000000000006          8.2141127677459735E-008
  -84.510000000000005          8.2424335801078996E-008
  -84.495000000000005          8.2646728571944550E-008
  -84.480000000000004          8.2815176938311197E-008
  -84.465000000000003          8.2937631873392093E-008
  -84.450000000000003          8.3022861474546517E-008
  -84.435000000000002          8.3080081481057277E-008
  -84.420000000000002          8.3118607108190190E-008
  -84.405000000000001          8.3147455143262050E-008
  -84.390000000000001          8.3174967357990681E-008
  -84.375000000000000          8.3208412604562909E-008
  -84.359999999999999          8.3253652860548755E-008
  -84.344999999999999          8.3314844800952415E-008
  -84.329999999999998          8.3394169791972672E-008
  -84.314999999999998          8.3491656255318958E-008
  -84.299999999999997          8.3605080192228343E-008
  -84.284999999999997          8.3729943867183465E-008
  -84.269999999999996          8.3859518440476677E-008
  -84.254999999999995          8.3985035814748699E-008
  -84.239999999999995          8.4095894692381989E-008
  -84.224999999999994          8.4179973214304482E-008
  -84.209999999999994          8.4224005547639536E-008
  -84.194999999999993          8.4214008211347391E-008
  -84.180000000000007          8.4135734823576058E-008
  -84.165000000000006          8.3975137954439560E-008
  -84.150000000000006          8.3718830978796177E-008
  -84.135000000000005          8.3354557034454047E-008
  -84.120000000000005          8.2871572715248476E-008
  -84.105000000000004          8.2260989131555107E-008
  -84.090000000000003          8.1516063232811575E-008
  -84.075000000000003          8.0632382548628811E-008
  -84.060000000000002          7.9607971770201402E-008
  -84.045000000000002          7.8443299855734949E-008
  -84.030000000000001          7.7141208976172493E-008
  -84.015000000000001          7.5706736879510572E-008
  -84.000000000000000          7.4146868200841709E-008
  -83.984999999999999          7.2470193401841243E-008
  -83.969999999999999          7.0686567710254167E-008
  -83.954999999999998          6.8806642161689524E-008
  -83.939999999999998          6.6841437273978954E-008
  -83.924999999999997          6.4801888299825805E-008
  -83.909999999999997          6.2698376268599532E-008
  -83.894999999999996          6.0540322976976313E-008
  -83.879999999999995          5.8335771768724953E-008
  -83.864999999999995          5.6091078448616827E-008
  -83.849999999999994          5.3810619959904216E-008
  -83.834999999999994          5.1496588326926940E-008
  -83.819999999999993          4.9148873415560956E-008
  -83.805000000000007          4.6764991878944784E-008
  -83.790000000000006          4.4340126237329969E-008
  -83.775000000000006          4.1867224354064092E-008
  -83.760000000000005          3.9337166413133673E-008
  -83.745000000000005          3.6739010056408006E-008
  -83.730000000000004          3.4060274600733464E-008
  -83.715000000000003          3.1287292756587703E-008
  -83.700000000000003          2.8405592544800129E-008
  -83.685000000000002          2.5400298753197603E-008
  -83.670000000000002          2.2256559262245901E-008
  -83.655000000000001          1.8959969594334325E-008
  -83.640000000000001          1.5497006344844522E-008
  -83.625000000000000          1.1855423309725666E-008
  -83.609999999999999          8.0246298495012525E-009
  -83.594999999999999          3.9960319497822638E-009
  -83.579999999999998         -2.3667781623437634E-010
  -83.564999999999998         -4.6772883344203819E-009
  -83.549999999999997         -9.3269019174613277E-009
  -83.534999999999997         -1.4183834551317887E-008
  -83.519999999999996         -1.9243602267238202E-008
  -83.504999999999995         -2.4498984174670113E-008
  -83.489999999999995         -2.9940160573005414E-008
  -83.474999999999994         -3.5554950983396338E-008
  -83.459999999999994         -4.1329105471277217E-008
  -83.444999999999993         -4.7246697221225986E-008
  -83.430000000000007         -5.3290555968033004E-008
  -83.415000000000006         -5.9442772482043438E-008
  -83.400000000000006         -6.5685227923495404E-008
  -83.385000000000005         -7.2000140960426506E-008
  -83.370000000000005         -7.8370661071858194E-008
  -83.355000000000004         -8.4781376585851831E-008
  -83.340000000000003         -9.1218851139274193E-008
  -83.325000000000003         -9.7672071319720999E-008
  -83.310000000000002         -1.0413281614773950E-007
  -83.295000000000002         -1.1059596971563224E-007
  -83.280000000000001         -1.1705967750685886E-007
  -83.265000000000001         -1.2352541034488240E-007
  -83.250000000000000         -1.2999791465517774E-007
  -83.234999999999999         -1.3648502772412030E-007
  -83.219999999999999         -1.4299732242761820E-007
  -83.204999999999998         -1.4954774485431699E-007
  -83.189999999999998         -1.5615100323884690E-007
  -83.174999999999997         -1.6282301373848895E-007
  -83.159999999999997         -1.6958017567958450E-007
  -83.144999999999996         -1.7643868943650887E-007
  -83.129999999999995         -1.8341378904551675E-007
  -83.114999999999995         -1.9051908850542532E-007
  -83.099999999999994         -1.9776588544573315E-007
  -83.084999999999994         -2.0516257848157693E-007
  -83.069999999999993         -2.1271421246638056E-007
  -83.055000000000007         -2.2042210900963255E-007
  -83.040000000000006         -2.2828362489235587E-007
  -83.025000000000006         -2.3629210943454382E-007
  -83.010000000000005         -2.4443701818199770E-007
  -82.995000000000005         -2.5270406922572874E-007
  -82.980000000000004         -2.6107568373845425E-007
  -82.965000000000003         -2.6953148335451260E-007
  -82.950000000000003         -2.7804898650174437E-007
  -82.935000000000002         -2.8660423367909971E-007
  -82.920000000000002         -2.9517252642108360E-007
  -82.905000000000001         -3.0372939363587648E-007
  -82.890000000000001         -3.1225124530465109E-007
  -82.875000000000000         -3.2071631039798376E-007
  -82.859999999999999         -3.2910517688833352E-007
  -82.844999999999999         -3.3740161597961560E-007
  -82.829999999999998         -3.4559295158942405E-007
  -82.814999999999998         -3.5367060036151088E-007
  -82.799999999999997         -3.6163029903946153E-007
  -82.784999999999997         -3.6947221815353259E-007
  -82.769999999999996         -3.7720093359894236E-007
  -82.754999999999995         -3.8482528452732367E-007
  -82.739999999999995         -3.9235808912962966E-007
  -82.724999999999994         -3.9981568988878280E-007
  -82.709999999999994         -4.0721735672377690E-007
  -82.694999999999993         -4.1458471855548851E-007
  -82.680000000000007         -4.2194105276394112E-007
  -82.665000000000006         -4.2931048938044114E-007
  -82.650000000000006         -4.3671727212313272E-007
  -82.635000000000005         -4.4418490574571479E-007
  -82.620000000000005         -4.5173547391641478E-007
  -82.605000000000004         -4.5938881498841511E-007
  -82.590000000000003         -4.6716189672224573E-007
  -82.575000000000003         -4.7506821942988608E-007
  -82.560000000000002         -4.8311727596228593E-007
  -82.545000000000002         -4.9131415380543331E-007
  -82.530000000000001         -4.9965927928496967E-007
  -82.515000000000001         -5.0814821861422388E-007
  -82.500000000000000         -5.1677153578566504E-007
  -82.484999999999999         -5.2551513363141567E-007
  -82.469999999999999         -5.3436014013641397E-007
  -82.454999999999998         -5.4328359055944020E-007
  -82.439999999999998         -5.5225859796337318E-007
  -82.424999999999997         -5.6125520586647326E-007
  -82.409999999999997         -5.7024095667657093E-007
  -82.394999999999996         -5.7918157381209312E-007
  -82.379999999999995         -5.8804204172702157E-007
  -82.364999999999995         -5.9678734487533802E-007
  -82.349999999999994         -6.0538349089256371E-007
  -82.334999999999994         -6.1379836324704229E-007
  -82.319999999999993         -6.2200280126489815E-007
  -82.305000000000007         -6.2997128225106280E-007
  -82.290000000000006         -6.3768288782739546E-007
  -82.275000000000006         -6.4512187236687168E-007
  -82.260000000000005         -6.5227823142777197E-007
  -82.245000000000005         -6.5914821334445151E-007
  -82.230000000000004         -6.6573431922734017E-007
  -82.215000000000003         -6.7204553033661796E-007
  -82.200000000000003         -6.7809708070853958E-007
  -82.185000000000002         -6.8391000240808353E-007
  -82.170000000000002         -6.8951078446843894E-007
  -82.155000000000001         -6.9493034970946610E-007
  -82.140000000000001         -7.0020342946008896E-007
  -82.125000000000000         -7.0536725615966134E-007
  -82.109999999999999         -7.1046071070668404E-007
  -82.094999999999999         -7.1552284452991444E-007
  -82.079999999999998         -7.2059179956340813E-007
  -82.064999999999998         -7.2570361453472287E-007
  -82.049999999999997         -7.3089091756628477E-007
  -82.034999999999997         -7.3618201668068650E-007
  -82.019999999999996         -7.4159999030598556E-007
  -82.004999999999995         -7.4716183462442132E-007
  -81.989999999999995         -7.5287800882506417E-007
  -81.974999999999994         -7.5875209404330235E-007
  -81.960000000000008         -7.6478085020426079E-007
  -81.944999999999993         -7.7095410233596340E-007
  -81.930000000000007         -7.7725536584694055E-007
  -81.915000000000006         -7.8366230127357994E-007
  -81.900000000000006         -7.9014768061824725E-007
  -81.885000000000005         -7.9668006947031245E-007
  -81.870000000000005         -8.0322530493504019E-007
  -81.855000000000004         -8.0974734828487271E-007
  -81.840000000000003         -8.1620959235806367E-007