  -90.000000000000000          0.0000000000000000     
  -89.984999999999999          0.0000000000000000     
  -89.969999999999999          0.0000000000000000     
  -89.954999999999998          0.0000000000000000     
  -89.939999999999998          0.0000000000000000     
  -89.924999999999997          0.0000000000000000     
  -89.909999999999997          0.0000000000000000     
  -89.894999999999996          0.0000000000000000     
  -89.879999999999995          0.0000000000000000     
  -89.864999999999995          0.0000000000000000     
  -89.849999999999994          0.0000000000000000     
  -89.834999999999994          0.0000000000000000     
  -89.819999999999993          0.0000000000000000     
  -89.805000000000007          0.0000000000000000     
  -89.790000000000006          0.0000000000000000     
  -89.775000000000006          0.0000000000000000     
  -89.760000000000005          0.0000000000000000     
  -89.745000000000005          0.0000000000000000     
  -89.730000000000004          0.0000000000000000     
  -89.715000000000003          0.0000000000000000     
  -89.700000000000003          0.0000000000000000     
  -89.685000000000002          0.0000000000000000     
  -89.670000000000002          0.0000000000000000     
  -89.655000000000001          0.0000000000000000     
  -89.640000000000001          0.0000000000000000     
  -89.625000000000000          0.0000000000000000     
  -89.609999999999999          0.0000000000000000     
  -89.594999999999999          0.0000000000000000     
  -89.579999999999998          0.0000000000000000     
  -89.564999999999998          0.0000000000000000     
  -89.549999999999997          0.0000000000000000     
  -89.534999999999997          0.0000000000000000     
  -89.519999999999996          0.0000000000000000     
  -89.504999999999995          0.0000000000000000     
  -89.489999999999995          0.0000000000000000     
  -89.474999999999994          0.0000000000000000     
  -89.459999999999994          0.0000000000000000     
  -89.444999999999993          0.0000000000000000     
  -89.430000000000007          0.0000000000000000     
  -89.415000000000006          0.0000000000000000     
  -89.400000000000006          0.0000000000000000     
  -89.385000000000005          0.0000000000000000     
  -89.370000000000005          0.0000000000000000     
  -89.355000000000004          0.0000000000000000     
  -89.340000000000003          0.0000000000000000     
  -89.325000000000003          0.0000000000000000     
  -89.310000000000002          0.0000000000000000     
  -89.295000000000002          0.0000000000000000     
  -89.280000000000001          0.0000000000000000     
  -89.265000000000001          0.0000000000000000     
  -89.250000000000000          0.0000000000000000     
  -89.234999999999999          0.0000000000000000     
  -89.219999999999999          0.0000000000000000     
  -89.204999999999998          0.0000000000000000     
  -89.189999999999998          0.0000000000000000     
  -89.174999999999997          0.0000000000000000     
  -89.159999999999997          0.0000000000000000     
  -89.144999999999996          0.0000000000000000     
  -89.129999999999995          0.0000000000000000     
  -89.114999999999995          0.0000000000000000     
  -89.099999999999994          0.0000000000000000     
  -89.084999999999994          0.0000000000000000     
  -89.069999999999993          0.0000000000000000     
  -89.055000000000007          0.0000000000000000     
  -89.040000000000006          0.0000000000000000     
  -89.025000000000006          0.0000000000000000     
  -89.010000000000005          0.0000000000000000     
  -88.995000000000005          0.0000000000000000     
  -88.980000000000004          0.0000000000000000     
  -88.965000000000003          0.0000000000000000     
  -88.950000000000003          0.0000000000000000     
  -88.935000000000002          0.0000000000000000     
  -88.920000000000002          0.0000000000000000     
  -88.905000000000001          0.0000000000000000     
  -88.890000000000001          0.0000000000000000     
  -88.875000000000000          0.0000000000000000     
  -88.859999999999999          0.0000000000000000     
  -88.844999999999999          0.0000000000000000     
  -88.829999999999998          0.0000000000000000     
  -88.814999999999998          0.0000000000000000     
  -88.799999999999997          0.0000000000000000     
  -88.784999999999997          0.0000000000000000     
  -88.769999999999996          0.0000000000000000     
  -88.754999999999995          0.0000000000000000     
  -88.739999999999995          0.0000000000000000     
  -88.724999999999994          0.0000000000000000     
  -88.709999999999994          0.0000000000000000     
  -88.694999999999993          0.0000000000000000     
  -88.680000000000007          0.0000000000000000     
  -88.665000000000006          0.0000000000000000     
  -88.650000000000006          0.0000000000000000     
  -88.635000000000005          0.0000000000000000     
  -88.620000000000005          0.0000000000000000     
  -88.605000000000004          0.0000000000000000     
  -88.590000000000003          0.0000000000000000     
  -88.575000000000003          0.0000000000000000     
  -88.560000000000002          0.0000000000000000     
  -88.545000000000002          0.0000000000000000     
  -88.530000000000001          0.0000000000000000     
  -88.515000000000001          0.0000000000000000     
  -88.500000000000000          0.0000000000000000     
  -88.484999999999999          0.0000000000000000     
  -88.469999999999999          0.0000000000000000     
  -88.454999999999998          0.0000000000000000     
  -88.439999999999998          0.0000000000000000     
  -88.424999999999997          0.0000000000000000     
  -88.409999999999997          0.0000000000000000     
  -88.394999999999996          0.0000000000000000     
  -88.379999999999995          0.0000000000000000     
  -88.364999999999995          0.0000000000000000     
  -88.349999999999994          0.0000000000000000     
  -88.334999999999994          0.0000000000000000     
  -88.319999999999993          0.0000000000000000     
  -88.305000000000007          0.0000000000000000     
  -88.290000000000006          0.0000000000000000     
  -88.275000000000006          0.0000000000000000     
  -88.260000000000005          0.0000000000000000     
  -88.245000000000005          0.0000000000000000     
  -88.230000000000004          0.0000000000000000     
  -88.215000000000003          0.0000000000000000     
  -88.200000000000003          0.0000000000000000     
  -88.185000000000002          0.0000000000000000     
  -88.170000000000002          0.0000000000000000     
  -88.155000000000001          0.0000000000000000     
  -88.140000000000001          0.0000000000000000     
  -88.125000000000000          0.0000000000000000     
  -88.109999999999999          0.0000000000000000     
  -88.094999999999999          0.0000000000000000     
  -88.079999999999998          0.0000000000000000     
  -88.064999999999998          0.0000000000000000     
  -88.049999999999997          0.0000000000000000     
  -88.034999999999997          0.0000000000000000     
  -88.019999999999996          0.0000000000000000     
  -88.004999999999995          0.0000000000000000     
  -87.989999999999995          0.0000000000000000     
  -87.974999999999994          0.0000000000000000     
  -87.959999999999994          0.0000000000000000     
  -87.944999999999993          0.0000000000000000     
  -87.930000000000007          0.0000000000000000     
  -87.915000000000006          0.0000000000000000     
  -87.900000000000006          0.0000000000000000     
  -87.885000000000005          0.0000000000000000     
  -87.870000000000005          0.0000000000000000     
  -87.855000000000004          0.0000000000000000     
  -87.840000000000003          0.0000000000000000     
  -87.825000000000003          0.0000000000000000     
  -87.810000000000002          0.0000000000000000     
  -87.795000000000002          0.0000000000000000     
  -87.780000000000001          0.0000000000000000     
  -87.765000000000001          0.0000000000000000     
  -87.750000000000000          0.0000000000000000     
  -87.734999999999999          0.0000000000000000     
  -87.719999999999999          0.0000000000000000     
  -87.704999999999998          0.0000000000000000     
  -87.689999999999998          0.0000000000000000     
  -87.674999999999997          0.0000000000000000     
  -87.659999999999997          0.0000000000000000     
  -87.644999999999996          0.0000000000000000     
  -87.629999999999995          0.0000000000000000     
  -87.614999999999995          0.0000000000000000     
  -87.599999999999994          0.0000000000000000     
  -87.584999999999994          0.0000000000000000     
  -87.569999999999993          0.0000000000000000     
  -87.555000000000007          0.0000000000000000     
  -87.540000000000006          0.0000000000000000     
  -87.525000000000006          0.0000000000000000     
  -87.510000000000005          0.0000000000000000     
  -87.495000000000005          0.0000000000000000     
  -87.480000000000004          0.0000000000000000     
  -87.465000000000003          0.0000000000000000     
  -87.450000000000003          0.0000000000000000     
  -87.435000000000002          0.0000000000000000     
  -87.420000000000002          0.0000000000000000     
  -87.405000000000001          0.0000000000000000     
  -87.390000000000001          0.0000000000000000     
  -87.375000000000000          0.0000000000000000     
  -87.359999999999999          0.0000000000000000     
  -87.344999999999999          0.0000000000000000     
  -87.329999999999998          0.0000000000000000     
  -87.314999999999998          0.0000000000000000     
  -87.299999999999997          0.0000000000000000     
  -87.284999999999997          0.0000000000000000     
  -87.269999999999996          0.0000000000000000     
  -87.254999999999995          0.0000000000000000     
  -87.239999999999995          0.0000000000000000     
  -87.224999999999994          0.0000000000000000     
  -87.209999999999994          0.0000000000000000     
  -87.194999999999993          0.0000000000000000     
  -87.180000000000007          0.0000000000000000     
  -87.165000000000006          0.0000000000000000     
  -87.150000000000006          0.0000000000000000     
  -87.135000000000005          0.0000000000000000     
  -87.120000000000005          0.0000000000000000     
  -87.105000000000004          0.0000000000000000     
  -87.090000000000003          0.0000000000000000     
  -87.075000000000003          0.0000000000000000     
  -87.060000000000002          0.0000000000000000     
  -87.045000000000002          0.0000000000000000     
  -87.030000000000001          0.0000000000000000     
  -87.015000000000001          0.0000000000000000     
  -87.000000000000000          0.0000000000000000     
  -86.984999999999999          0.0000000000000000     
  -86.969999999999999          0.0000000000000000     
  -86.954999999999998          0.0000000000000000     
  -86.939999999999998          0.0000000000000000     
  -86.924999999999997          0.0000000000000000     
  -86.909999999999997          0.0000000000000000     
  -86.894999999999996          0.0000000000000000     
  -86.879999999999995          0.0000000000000000     
  -86.864999999999995          0.0000000000000000     
  -86.849999999999994          0.0000000000000000     
  -86.834999999999994          0.0000000000000000     
  -86.819999999999993          0.0000000000000000     
  -86.805000000000007          0.0000000000000000     
  -86.790000000000006          0.0000000000000000     
  -86.775000000000006          0.0000000000000000     
  -86.760000000000005          0.0000000000000000     
  -86.745000000000005          0.0000000000000000     
  -86.730000000000004          0.0000000000000000     
  -86.715000000000003          0.0000000000000000     
  -86.700000000000003          0.0000000000000000     
  -86.685000000000002          0.0000000000000000     
  -86.670000000000002          0.0000000000000000     
  -86.655000000000001          0.0000000000000000     
  -86.640000000000001          0.0000000000000000     
  -86.625000000000000          0.0000000000000000     
  -86.609999999999999          0.0000000000000000     
  -86.594999999999999          0.0000000000000000     
  -86.579999999999998          0.0000000000000000     
  -86.564999999999998          0.0000000000000000     
  -86.549999999999997          0.0000000000000000     
  -86.534999999999997          0.0000000000000000     
  -86.519999999999996          0.0000000000000000     
  -86.504999999999995          0.0000000000000000     
  -86.489999999999995          0.0000000000000000     
  -86.474999999999994          0.0000000000000000     
  -86.459999999999994          0.0000000000000000     
  -86.444999999999993          0.0000000000000000     
  -86.430000000000007          0.0000000000000000     
  -86.415000000000006          0.0000000000000000     
  -86.400000000000006          0.0000000000000000     
  -86.385000000000005          0.0000000000000000     
  -86.370000000000005          0.0000000000000000     
  -86.355000000000004          0.0000000000000000     
  -86.340000000000003          0.0000000000000000     
  -86.325000000000003          0.0000000000000000     
  -86.310000000000002          0.0000000000000000     
  -86.295000000000002          0.0000000000000000     
  -86.280000000000001          0.0000000000000000     
  -86.265000000000001          0.0000000000000000     
  -86.250000000000000          0.0000000000000000     
  -86.234999999999999          0.0000000000000000     
  -86.219999999999999          0.0000000000000000     
  -86.204999999999998          0.0000000000000000     
  -86.189999999999998          0.0000000000000000     
  -86.174999999999997          0.0000000000000000     
  -86.159999999999997          0.0000000000000000     
  -86.144999999999996          0.0000000000000000     
  -86.129999999999995          0.0000000000000000     
  -86.114999999999995          0.0000000000000000     
  -86.099999999999994          0.0000000000000000     
  -86.084999999999994          0.0000000000000000     
  -86.069999999999993          0.0000000000000000     
  -86.055000000000007          0.0000000000000000     
  -86.040000000000006          0.0000000000000000     
  -86.025000000000006          0.0000000000000000     
  -86.010000000000005          0.0000000000000000     
  -85.995000000000005          0.0000000000000000     
  -85.980000000000004          0.0000000000000000     
  -85.965000000000003          0.0000000000000000     
  -85.950000000000003          0.0000000000000000     
  -85.935000000000002          0.0000000000000000     
  -85.920000000000002          0.0000000000000000     
  -85.905000000000001          0.0000000000000000     
  -85.890000000000001          0.0000000000000000     
  -85.875000000000000          0.0000000000000000     
  -85.859999999999999          0.0000000000000000     
  -85.844999999999999          0.0000000000000000     
  -85.829999999999998          0.0000000000000000     
  -85.814999999999998          0.0000000000000000     
  -85.799999999999997          0.0000000000000000     
  -85.784999999999997          0.0000000000000000     
  -85.769999999999996          0.0000000000000000     
  -85.754999999999995          0.0000000000000000     
  -85.739999999999995          0.0000000000000000     
  -85.724999999999994          0.0000000000000000     
  -85.709999999999994          0.0000000000000000     
  -85.694999999999993          0.0000000000000000     
  -85.680000000000007          0.0000000000000000     
  -85.665000000000006          0.0000000000000000     
  -85.650000000000006          0.0000000000000000     
  -85.635000000000005          0.0000000000000000     
  -85.620000000000005          0.0000000000000000     
  -85.605000000000004          0.0000000000000000     
  -85.590000000000003          0.0000000000000000     
  -85.575000000000003          0.0000000000000000     
  -85.560000000000002          0.0000000000000000     
  -85.545000000000002          0.0000000000000000     
  -85.530000000000001          0.0000000000000000     
  -85.515000000000001          0.0000000000000000     
  -85.500000000000000          0.0000000000000000     
  -85.484999999999999          0.0000000000000000     
  -85.469999999999999          0.0000000000000000     
  -85.454999999999998          0.0000000000000000     
  -85.439999999999998          0.0000000000000000     
  -85.424999999999997          0.0000000000000000     
  -85.409999999999997          0.0000000000000000     
  -85.394999999999996          0.0000000000000000     
  -85.379999999999995          0.0000000000000000     
  -85.364999999999995          0.0000000000000000     
  -85.349999999999994          0.0000000000000000     
  -85.334999999999994          0.0000000000000000     
  -85.319999999999993          0.0000000000000000     
  -85.305000000000007          0.0000000000000000     
  -85.290000000000006          0.0000000000000000     
  -85.275000000000006          0.0000000000000000     
  -85.260000000000005          0.0000000000000000     
  -85.245000000000005          0.0000000000000000     
  -85.230000000000004          0.0000000000000000     
  -85.215000000000003          0.0000000000000000     
  -85.200000000000003          0.0000000000000000     
  -85.185000000000002          0.0000000000000000     
  -85.170000000000002          0.0000000000000000     
  -85.155000000000001          0.0000000000000000     
  -85.140000000000001          0.0000000000000000     
  -85.125000000000000          0.0000000000000000     
  -85.109999999999999          0.0000000000000000     
  -85.094999999999999          0.0000000000000000     
  -85.079999999999998          0.0000000000000000     
  -85.064999999999998          0.0000000000000000     
  -85.049999999999997          0.0000000000000000     
  -85.034999999999997          0.0000000000000000     
  -85.019999999999996          0.0000000000000000     
  -85.004999999999995          0.0000000000000000     
  -84.989999999999995          0.0000000000000000     
  -84.974999999999994          0.0000000000000000     
  -84.959999999999994          0.0000000000000000     
  -84.944999999999993          0.0000000000000000     
  -84.930000000000007          0.0000000000000000     
  -84.915000000000006          0.0000000000000000     
  -84.900000000000006          0.0000000000000000     
  -84.885000000000005          0.0000000000000000     
  -84.870000000000005          0.0000000000000000     
  -84.855000000000004          0.0000000000000000     
  -84.840000000000003          0.0000000000000000     
  -84.825000000000003          0.0000000000000000     
  -84.810000000000002          1.2932100079283545E-038
  -84.795000000000002          2.7264545739936166E-038
  -84.780000000000001          4.3003882447084724E-038
  -84.765000000000001          6.0122901188447425E-038
  -84.750000000000000          7.8562542838946834E-038
  -84.734999999999999          9.8256772609750110E-038
  -84.719999999999999          1.1915892165680138E-037
  -84.704999999999998          1.4123451803787825E-037
  -84.689999999999998          1.6445067047542609E-037
  -84.674999999999997          1.8877698760835062E-037
  -84.659999999999997          2.1203495479207391E-037
  -84.644999999999996          2.3137242518424780E-037
  -84.629999999999995          2.4538626181696228E-037
  -84.614999999999995          2.4538626181696228E-037
  -84.599999999999994          2.4538626181696228E-037
  -84.584999999999994          2.4538626181696228E-037
  -84.569999999999993          2.2339217616495826E-037
  -84.555000000000007          1.8868826859997729E-037
  -84.540000000000006          1.4469628576414627E-037
  -84.525000000000006          9.5446440513577402E-038
  -84.510000000000005          4.0713992600562254E-038
  -84.495000000000005         -1.9649724531576319E-038
  -84.480000000000004         -8.5709512529022554E-038
  -84.465000000000003         -1.5795488978691597E-037
  -84.450000000000003         -2.3710113509338652E-037
  -84.435000000000002         -3.2359828946323676E-037
  -84.420000000000002         -4.1786253854037118E-037
  -84.405000000000001         -5.2029153719780200E-037
  -84.390000000000001         -6.7212552166138402E-037
  -84.375000000000000         -8.7630650124138562E-037
  -84.359999999999999         -1.1400248634595012E-036
  -84.344999999999999         -1.5298448413395584E-036
  -84.329999999999998         -2.0583927394060605E-036
  -84.314999999999998         -2.7352537082042944E-036
  -84.299999999999997         -3.5962109465868517E-036
  -84.284999999999997         -4.5795538709948173E-036
  -84.269999999999996         -5.6419431225235532E-036
  -84.254999999999995         -6.7617083939390285E-036
  -84.239999999999995         -7.9269838934192982E-036
  -84.224999999999994         -9.1023519704343685E-036
  -84.209999999999994         -1.0257478212659553E-035
  -84.194999999999993         -1.1336554619558528E-035
  -84.180000000000007         -1.2367632630418678E-035
  -84.165000000000006         -1.3334049124941024E-035
  -84.150000000000006         -1.4217929902221003E-035
  -84.135000000000005         -1.4862834629483104E-035
  -84.120000000000005         -1.5247088694704414E-035
  -84.105000000000004         -1.5306121699578472E-035
  -84.090000000000003         -1.5033585515433359E-035
  -84.075000000000003         -1.4410679694289979E-035
  -84.060000000000002         -1.3415886031454814E-035
  -84.045000000000002         -1.1989056581733262E-035
  -84.030000000000001         -1.0257077867293489E-035
  -84.015000000000001         -8.2622300896088589E-036
  -84.000000000000000         -5.9252082754932496E-036
  -83.984999999999999         -3.1619542473695499E-036
  -83.969999999999999         -1.7702861338732850E-038
  -83.954999999999998          3.5424678097844560E-036
  -83.939999999999998          7.5433224541341329E-036
  -83.924999999999997          1.1950352942356364E-035
  -83.909999999999997          1.6721788831727946E-035
  -83.894999999999996          2.1805319762679510E-035
  -83.879999999999995          2.7059991880440001E-035
  -83.864999999999995          3.2346157833664173E-035
  -83.849999999999994          3.7599291706864017E-035
  -83.834999999999994          4.2710795155973454E-035
  -83.819999999999993          4.7586654461659996E-035
  -83.805000000000007          5.2115065647069797E-035
  -83.790000000000006          5.6178677297409221E-035
  -83.775000000000006          5.9652452514799906E-035
  -83.760000000000005          6.2351159103491185E-035
  -83.745000000000005          6.4160834952469501E-035
  -83.730000000000004          6.5027784995074977E-035
  -83.715000000000003          6.4823175509634973E-035
  -83.700000000000003          6.3349979178861027E-035
  -83.685000000000002          6.0429771113155183E-035
  -83.670000000000002          5.6006078222098786E-035
  -83.655000000000001          5.0012985578324438E-035
  -83.640000000000001          4.2316602768152296E-035
  -83.625000000000000          3.2821598806851858E-035
  -83.609999999999999          2.1456783965745149E-035
  -83.594999999999999          8.1433978274396732E-036
  -83.579999999999998         -7.2748291842144121E-036
  -83.564999999999998         -2.4799992066473211E-035
  -83.549999999999997         -4.4334937473979333E-035
  -83.534999999999997         -6.5996167343186955E-035
  -83.519999999999996         -8.9615028655261182E-035
  -83.504999999999995         -1.1505455163754162E-034
  -83.489999999999995         -1.4213174258449646E-034
  -83.474999999999994         -1.7055958113232092E-034
  -83.459999999999994         -2.0001080001101897E-034
  -83.444999999999993         -2.3008908313692080E-034
  -83.430000000000007         -2.6030057364999981E-034
  -83.415000000000006         -2.9010507220298063E-034
  -83.400000000000006         -3.1886273793525651E-034
  -83.385000000000005         -3.4586402684463677E-034
  -83.370000000000005         -3.7031022266216132E-034
  -83.355000000000004         -3.9133543145343050E-034
  -83.340000000000003         -4.0797781414943359E-034
  -83.325000000000003         -4.1925535083087915E-034
  -83.310000000000002         -4.2411606588927738E-034
  -83.295000000000002         -4.2147671372969672E-034
  -83.280000000000001         -4.1022218184003873E-034
  -83.265000000000001         -3.8924015869083785E-034
  -83.250000000000000         -3.5744487321101813E-034
  -83.234999999999999         -3.1380547195620613E-034
  -83.219999999999999         -2.5738378645652585E-034
  -83.204999999999998         -1.8734382671101406E-034
  -83.189999999999998         -1.0295793416586294E-034
  -83.174999999999997         -3.7071808705947300E-036
  -83.159999999999997          1.1063942240650196E-034
  -83.144999999999996          2.4010679752319700E-034
  -83.129999999999995          3.8429855951919846E-034
  -83.114999999999995          5.4264033476322321E-034
  -83.099999999999994          7.1408531339344034E-034
  -83.084999999999994          8.9716199229603633E-034
  -83.069999999999993          1.0899426066534107E-033
  -83.055000000000007          1.2900359897343497E-033
  -83.040000000000006          1.4945135994018713E-033
  -83.025000000000006          1.6999308698660814E-033
  -83.010000000000005          1.9023340993463862E-033
  -82.995000000000005          2.0972400625913450E-033
  -82.980000000000004          2.2796815612847642E-033
  -82.965000000000003          2.4442184443052369E-033
  -82.950000000000003          2.5849761786345285E-033
  -82.935000000000002          2.6956969098934413E-033
  -82.920000000000002          2.7698318488509490E-033
  -82.905000000000001          2.8006068419684535E-033
  -82.890000000000001          2.7811272475363973E-033
  -82.875000000000000          2.7044844648498072E-033
  -82.859999999999999          2.5638980955563464E-033
  -82.844999999999999          2.3528571866494055E-033
  -82.829999999999998          2.0652803915734025E-033
  -82.814999999999998          1.6956889882985438E-033
  -82.799999999999997          1.2393919278455831E-033
  -82.784999999999997          6.9268644892717834E-034
  -82.769999999999996          5.3045296086246639E-035
  -82.754999999999995         -6.8065700912093923E-034
  -82.739999999999995         -1.5079369183687964E-033
  -82.724999999999994         -2.4264894181009443E-033
  -82.709999999999994         -3.4319780821065508E-033
  -82.694999999999993         -4.5178351112068848E-033
  -82.680000000000007         -5.6750699939990712E-033
  -82.665000000000006         -6.8920974989717872E-033
  -82.650000000000006         -8.1545894520144630E-033
  -82.635000000000005         -9.4453366158310602E-033
  -82.620000000000005         -1.0744171180781315E-032
  -82.605000000000004         -1.2027934438786089E-032
  -82.590000000000003         -1.3270443722548755E-032
  -82.575000000000003         -1.4442557057744490E-032
  -82.560000000000002         -1.5512277488143911E-032
  -82.545000000000002         -1.6444935277237453E-032
  -82.530000000000001         -1.7203439170152858E-032
  -82.515000000000001         -1.7748605532073403E-032
  -82.500000000000000         -1.8039581526204198E-032
  -82.484999999999999         -1.8034356453814793E-032
  -82.469999999999999         -1.7690367133829851E-032
  -82.454999999999998         -1.6965214954383152E-032
  -82.439999999999998         -1.5817478433287594E-032
  -82.424999999999997         -1.4207628634260902E-032
  -82.409999999999997         -1.2099054785746714E-032
  -82.394999999999996         -9.4591854086516852E-033
  -82.379999999999995         -6.2606998102107963E-033
  -82.364999999999995         -2.4828288419549411E-033
  -82.349999999999994          1.8872752820283835E-033
  -82.334999999999994          6.8531144328786738E-033
  -82.319999999999993          1.2407385484599462E-032
  -82.305000000000007          1.8530507640041926E-032
  -82.290000000000006          2.5189171797407577E-032
  -82.275000000000006          3.2334937303866967E-032
  -82.260000000000005          3.9902916871254707E-032
  -82.245000000000005          4.7810596673614825E-032
  -82.230000000000004          5.5956822483323188E-032
  -82.215000000000003          6.4221023844815952E-032
  -82.200000000000003          7.2462702734546961E-032
  -82.185000000000002          8.0521245481891612E-032
  -82.170000000000002          8.8216160806752897E-032
  -82.155000000000001          9.5347691076623829E-032
  -82.140000000000001          1.0169802306576879E-031
  -82.125000000000000          1.0703292189237119E-031
  -82.109999999999999          1.1110405849734805E-031
  -82.094999999999999          1.1365194250275536E-031
  -82.079999999999998          1.1440952510197331E-031
  -82.064999999999998          1.1310648961408680E-031
  -82.049999999999997          1.0947422382498944E-031
  -82.034999999999997          1.0325160341958956E-031
  -82.019999999999996          9.4191292631530650E-032
  -82.004999999999995          8.2066808964239772E-032
  -81.989999999999995          6.6680116884433899E-032
  -81.974999999999994          4.7869747549348203E-032
  -81.960000000000008          2.5519291753420754E-032
  -81.944999999999993         -4.3382665941752722E-034
  -81.930000000000007         -2.9989452854520117E-032
  -81.915000000000006         -6.3075874880660142E-032
  -81.900000000000006         -9.9541249540767078E-032
  -81.885000000000005         -1.3914554676587477E-031
  -81.870000000000005         -1.8155313940893643E-031
  -81.855000000000004         -2.2632648496268900E-031
  -81.840000000000003         -2.7292098864934001E-031