  -90.000000000000000          0.0000000000000000     
  -89.984999999999999          0.0000000000000000     
  -89.969999999999999          0.0000000000000000     
  -89.954999999999998          0.0000000000000000     
  -89.939999999999998          0.0000000000000000     
  -89.924999999999997          0.0000000000000000     
  -89.909999999999997          0.0000000000000000     
  -89.894999999999996          0.0000000000000000     
  -89.879999999999995          0.0000000000000000     
  -89.864999999999995          0.0000000000000000     
  -89.849999999999994          0.0000000000000000     
  -89.834999999999994          0.0000000000000000     
  -89.819999999999993          0.0000000000000000     
  -89.805000000000007          0.0000000000000000     
  -89.790000000000006          0.0000000000000000     
  -89.775000000000006          0.0000000000000000     
  -89.760000000000005          0.0000000000000000     
  -89.745000000000005          0.0000000000000000     
  -89.730000000000004          0.0000000000000000     
  -89.715000000000003          0.0000000000000000     
  -89.700000000000003          0.0000000000000000     
  -89.685000000000002          0.0000000000000000     
  -89.670000000000002          0.0000000000000000     
  -89.655000000000001          0.0000000000000000     
  -89.640000000000001          0.0000000000000000     
  -89.625000000000000          0.0000000000000000     
  -89.609999999999999          0.0000000000000000     
  -89.594999999999999          0.0000000000000000     
  -89.579999999999998          0.0000000000000000     
  -89.564999999999998          0.0000000000000000     
  -89.549999999999997          0.0000000000000000     
  -89.534999999999997          0.0000000000000000     
  -89.519999999999996          0.0000000000000000     
  -89.504999999999995          0.0000000000000000     
  -89.489999999999995          0.0000000000000000     
  -89.474999999999994          0.0000000000000000     
  -89.459999999999994          0.0000000000000000     
  -89.444999999999993          0.0000000000000000     
  -89.430000000000007          0.0000000000000000     
  -89.415000000000006          0.0000000000000000     
  -89.400000000000006          0.0000000000000000     
  -89.385000000000005          0.0000000000000000     
  -89.370000000000005          0.0000000000000000     
  -89.355000000000004          0.0000000000000000     
  -89.340000000000003          0.0000000000000000     
  -89.325000000000003          0.0000000000000000     
  -89.310000000000002          0.0000000000000000     
  -89.295000000000002          0.0000000000000000     
  -89.280000000000001          0.0000000000000000     
  -89.265000000000001          0.0000000000000000     
  -89.250000000000000          0.0000000000000000     
  -89.234999999999999          0.0000000000000000     
  -89.219999999999999          0.0000000000000000     
  -89.204999999999998          0.0000000000000000     
  -89.189999999999998          0.0000000000000000     
  -89.174999999999997          0.0000000000000000     
  -89.159999999999997          0.0000000000000000     
  -89.144999999999996          0.0000000000000000     
  -89.129999999999995          0.0000000000000000     
  -89.114999999999995          0.0000000000000000     
  -89.099999999999994          0.0000000000000000     
  -89.084999999999994          0.0000000000000000     
  -89.069999999999993          0.0000000000000000     
  -89.055000000000007          0.0000000000000000     
  -89.040000000000006          0.0000000000000000     
  -89.025000000000006          0.0000000000000000     
  -89.010000000000005          0.0000000000000000     
  -88.995000000000005          0.0000000000000000     
  -88.980000000000004          0.0000000000000000     
  -88.965000000000003          0.0000000000000000     
  -88.950000000000003          0.0000000000000000     
  -88.935000000000002          0.0000000000000000     
  -88.920000000000002          0.0000000000000000     
  -88.905000000000001          0.0000000000000000     
  -88.890000000000001          0.0000000000000000     
  -88.875000000000000          0.0000000000000000     
  -88.859999999999999          0.0000000000000000     
  -88.844999999999999          0.0000000000000000     
  -88.829999999999998          0.0000000000000000     
  -88.814999999999998          0.0000000000000000     
  -88.799999999999997          0.0000000000000000     
  -88.784999999999997          0.0000000000000000     
  -88.769999999999996          0.0000000000000000     
  -88.754999999999995          0.0000000000000000     
  -88.739999999999995          0.0000000000000000     
  -88.724999999999994          0.0000000000000000     
  -88.709999999999994          0.0000000000000000     
  -88.694999999999993          0.0000000000000000     
  -88.680000000000007          0.0000000000000000     
  -88.665000000000006          0.0000000000000000     
  -88.650000000000006          0.0000000000000000     
  -88.635000000000005          0.0000000000000000     
  -88.620000000000005          0.0000000000000000     
  -88.605000000000004          0.0000000000000000     
  -88.590000000000003          0.0000000000000000     
  -88.575000000000003          0.0000000000000000     
  -88.560000000000002          0.0000000000000000     
  -88.545000000000002          0.0000000000000000     
  -88.530000000000001          0.0000000000000000     
  -88.515000000000001          0.0000000000000000     
  -88.500000000000000          0.0000000000000000     
  -88.484999999999999          0.0000000000000000     
  -88.469999999999999          0.0000000000000000     
  -88.454999999999998          0.0000000000000000     
  -88.439999999999998          0.0000000000000000     
  -88.424999999999997          0.0000000000000000     
  -88.409999999999997          0.0000000000000000     
  -88.394999999999996          0.0000000000000000     
  -88.379999999999995          0.0000000000000000     
  -88.364999999999995          0.0000000000000000     
  -88.349999999999994          0.0000000000000000     
  -88.334999999999994          0.0000000000000000     
  -88.319999999999993          0.0000000000000000     
  -88.305000000000007          0.0000000000000000     
  -88.290000000000006          0.0000000000000000     
  -88.275000000000006          0.0000000000000000     
  -88.260000000000005          0.0000000000000000     
  -88.245000000000005          0.0000000000000000     
  -88.230000000000004          0.0000000000000000     
  -88.215000000000003          0.0000000000000000     
  -88.200000000000003          0.0000000000000000     
  -88.185000000000002          0.0000000000000000     
  -88.170000000000002          0.0000000000000000     
  -88.155000000000001          0.0000000000000000     
  -88.140000000000001          0.0000000000000000     
  -88.125000000000000          0.0000000000000000     
  -88.109999999999999          0.0000000000000000     
  -88.094999999999999          0.0000000000000000     
  -88.079999999999998          0.0000000000000000     
  -88.064999999999998          0.0000000000000000     
  -88.049999999999997          0.0000000000000000     
  -88.034999999999997          0.0000000000000000     
  -88.019999999999996          0.0000000000000000     
  -88.004999999999995          0.0000000000000000     
  -87.989999999999995          0.0000000000000000     
  -87.974999999999994          0.0000000000000000     
  -87.959999999999994          0.0000000000000000     
  -87.944999999999993          0.0000000000000000     
  -87.930000000000007          0.0000000000000000     
  -87.915000000000006          0.0000000000000000     
  -87.900000000000006          0.0000000000000000     
  -87.885000000000005          0.0000000000000000     
  -87.870000000000005          0.0000000000000000     
  -87.855000000000004          0.0000000000000000     
  -87.840000000000003          0.0000000000000000     
  -87.825000000000003          0.0000000000000000     
  -87.810000000000002          0.0000000000000000     
  -87.795000000000002          0.0000000000000000     
  -87.780000000000001          0.0000000000000000     
  -87.765000000000001          0.0000000000000000     
  -87.750000000000000          0.0000000000000000     
  -87.734999999999999          0.0000000000000000     
  -87.719999999999999          0.0000000000000000     
  -87.704999999999998          0.0000000000000000     
  -87.689999999999998          0.0000000000000000     
  -87.674999999999997          0.0000000000000000     
  -87.659999999999997          0.0000000000000000     
  -87.644999999999996          0.0000000000000000     
  -87.629999999999995          0.0000000000000000     
  -87.614999999999995          0.0000000000000000     
  -87.599999999999994          0.0000000000000000     
  -87.584999999999994          0.0000000000000000     
  -87.569999999999993          0.0000000000000000     
  -87.555000000000007          0.0000000000000000     
  -87.540000000000006          0.0000000000000000     
  -87.525000000000006          0.0000000000000000     
  -87.510000000000005          0.0000000000000000     
  -87.495000000000005          0.0000000000000000     
  -87.480000000000004          0.0000000000000000     
  -87.465000000000003          0.0000000000000000     
  -87.450000000000003          0.0000000000000000     
  -87.435000000000002          0.0000000000000000     
  -87.420000000000002          0.0000000000000000     
  -87.405000000000001          0.0000000000000000     
  -87.390000000000001          0.0000000000000000     
  -87.375000000000000          0.0000000000000000     
  -87.359999999999999          0.0000000000000000     
  -87.344999999999999          0.0000000000000000     
  -87.329999999999998          0.0000000000000000     
  -87.314999999999998          0.0000000000000000     
  -87.299999999999997          0.0000000000000000     
  -87.284999999999997          0.0000000000000000     
  -87.269999999999996          0.0000000000000000     
  -87.254999999999995          0.0000000000000000     
  -87.239999999999995          0.0000000000000000     
  -87.224999999999994          0.0000000000000000     
  -87.209999999999994          0.0000000000000000     
  -87.194999999999993          0.0000000000000000     
  -87.180000000000007          0.0000000000000000     
  -87.165000000000006          0.0000000000000000     
  -87.150000000000006          0.0000000000000000     
  -87.135000000000005          0.0000000000000000     
  -87.120000000000005          0.0000000000000000     
  -87.105000000000004          0.0000000000000000     
  -87.090000000000003          0.0000000000000000     
  -87.075000000000003          0.0000000000000000     
  -87.060000000000002          0.0000000000000000     
  -87.045000000000002          0.0000000000000000     
  -87.030000000000001          0.0000000000000000     
  -87.015000000000001          0.0000000000000000     
  -87.000000000000000          0.0000000000000000     
  -86.984999999999999          0.0000000000000000     
  -86.969999999999999          0.0000000000000000     
  -86.954999999999998          0.0000000000000000     
  -86.939999999999998          1.2074681982723262E-038
  -86.924999999999997          2.8526448638223807E-038
  -86.909999999999997          5.0048832003763739E-038
  -86.894999999999996          7.7351888228096480E-038
  -86.879999999999995          1.1114994041379932E-037
  -86.864999999999995          1.5214872730905709E-037
  -86.849999999999994          2.0102247526218890E-037
  -86.834999999999994          2.5837759898622823E-037
  -86.819999999999993          3.2472080800587494E-037
  -86.805000000000007          4.0042056534453246E-037
  -86.790000000000006          4.8567659526972408E-037
  -86.775000000000006          5.7972946127611202E-037
  -86.760000000000005          6.8131319669986211E-037
  -86.745000000000005          7.8935344282395808E-037
  -86.730000000000004          9.0240975451017574E-037
  -86.715000000000003          1.0186485607439153E-036
  -86.700000000000003          1.1359703801139869E-036
  -86.685000000000002          1.2516935085128550E-036
  -86.670000000000002          1.3629222579522879E-036
  -86.655000000000001          1.4659937015088669E-036
  -86.640000000000001          1.5562870070497363E-036
  -86.625000000000000          1.6289993754286567E-036
  -86.609999999999999          1.6517008589662273E-036
  -86.594999999999999          1.6283199362500503E-036
  -86.579999999999998          1.5503168029684497E-036
  -86.564999999999998          1.4412617925484282E-036
  -86.549999999999997          1.2986403701840507E-036
  -86.534999999999997          1.1201088473781523E-036
  -86.519999999999996          9.0366540761731249E-037
  -86.504999999999995          6.6047860144917902E-037
  -86.489999999999995          3.8799676526370578E-037
  -86.474999999999994          8.3882533222399001E-038
  -86.459999999999994         -2.5380737054351613E-037
  -86.444999999999993         -6.1857385828115368E-037
  -86.430000000000007         -1.0540658525415025E-036
  -86.415000000000006         -1.5576444504773216E-036
  -86.400000000000006         -2.1130840059598061E-036
  -86.385000000000005         -2.6985342177697794E-036
  -86.370000000000005         -3.2603853975602006E-036
  -86.355000000000004         -3.7881274032746756E-036
  -86.340000000000003         -4.3048240381817110E-036
  -86.325000000000003         -4.7787188746957989E-036
  -86.310000000000002         -5.2109759994772232E-036
  -86.295000000000002         -5.8164441970551974E-036
  -86.280000000000001         -6.5934923111756967E-036
  -86.265000000000001         -7.4738926666442503E-036
  -86.250000000000000         -8.4078969707413351E-036
  -86.234999999999999         -9.3727120837994260E-036
  -86.219999999999999         -1.0326690608310874E-035
  -86.204999999999998         -1.1179657261696669E-035
  -86.189999999999998         -1.1857040186146894E-035
  -86.174999999999997         -1.2319114789854710E-035
  -86.159999999999997         -1.2262762233524762E-035
  -86.144999999999996         -1.1664628320005187E-035
  -86.129999999999995         -1.0470626246847809E-035
  -86.114999999999995         -8.6353297293710415E-036
  -86.099999999999994         -6.0987350328078427E-036
  -86.084999999999994         -2.8352453443648172E-036
  -86.069999999999993          1.1817721679424627E-036
  -86.055000000000007          5.7657165648649270E-036
  -86.040000000000006          1.0939876216157781E-035
  -86.025000000000006          1.6845895895207707E-035
  -86.010000000000005          2.3430046097043769E-035
  -85.995000000000005          3.0640052335337287E-035
  -85.980000000000004          3.8378266214009393E-035
  -85.965000000000003          4.6556779639292478E-035
  -85.950000000000003          5.5197834020412305E-035
  -85.935000000000002          6.4219500615358927E-035
  -85.920000000000002          7.3530776187158285E-035
  -85.905000000000001          8.3081512815189604E-035
  -85.890000000000001          9.2801111961781430E-035
  -85.875000000000000          1.0256280046420616E-034
  -85.859999999999999          1.1221635266990487E-034
  -85.844999999999999          1.2165717942819060E-034
  -85.829999999999998          1.3072813872570002E-034
  -85.814999999999998          1.3925874944325285E-034
  -85.799999999999997          1.4705089945676224E-034
  -85.784999999999997          1.5388315042611726E-034
  -85.769999999999996          1.5952884086736294E-034
  -85.754999999999995          1.6371802033954289E-034
  -85.739999999999995          1.6615891599192614E-034
  -85.724999999999994          1.6653242243423771E-034
  -85.709999999999994          1.6449887460450025E-034
  -85.694999999999993          1.5966916550549235E-034
  -85.680000000000007          1.5165099685650112E-034
  -85.665000000000006          1.3980893590073537E-034
  -85.650000000000006          1.2388877050539277E-034
  -85.635000000000005          1.0319286084447210E-034
  -85.620000000000005          7.7389789831494724E-035
  -85.605000000000004          4.5958190135616181E-035
  -85.590000000000003          8.3366060795246258E-036
  -85.575000000000003         -3.6077611973837162E-035
  -85.560000000000002         -8.7903042815320929E-035
  -85.545000000000002         -1.4773701392799561E-034
  -85.530000000000001         -2.1618638288005099E-034
  -85.515000000000001         -2.9383483312619320E-034
  -85.500000000000000         -3.8124153952309125E-034
  -85.484999999999999         -4.7888693946889566E-034
  -85.469999999999999         -5.8712503584242144E-034
  -85.454999999999998         -7.0625463838929267E-034
  -85.439999999999998         -8.3638149568333526E-034
  -85.424999999999997         -9.7741326713316237E-034
  -85.409999999999997         -1.1290176000781782E-033
  -85.394999999999996         -1.2905870945467938E-033
  -85.379999999999995         -1.4611781408159859E-033
  -85.364999999999995         -1.6394731750223757E-033
  -85.349999999999994         -1.8237260370420151E-033
  -85.334999999999994         -2.0117132976774231E-033
  -85.319999999999993         -2.2006938510392760E-033
  -85.305000000000007         -2.3873662110406939E-033
  -85.290000000000006         -2.5678315935277854E-033
  -85.275000000000006         -2.7375652636048465E-033
  -85.260000000000005         -2.8913952297992512E-033
  -85.245000000000005         -3.0234818565813054E-033
  -85.230000000000004         -3.1273516598268321E-033
  -85.215000000000003         -3.1958826131377868E-033
  -85.200000000000003         -3.2213474941964439E-033
  -85.185000000000002         -3.1954645779592756E-033
  -85.170000000000002         -3.1094698193569327E-033
  -85.155000000000001         -2.9542092398033787E-033
  -85.140000000000001         -2.7202537215660882E-033
  -85.125000000000000         -2.3980435568369989E-033
  -85.109999999999999         -1.9780493435217806E-033
  -85.094999999999999         -1.4509640132623018E-033
  -85.079999999999998         -8.0791763466214284E-034
  -85.064999999999998         -4.0721190611147594E-035
  -85.049999999999997          8.5786925690987821E-034
  -85.034999999999997          1.8938810092670278E-033
  -85.019999999999996          3.0718060620016250E-033
  -85.004999999999995          4.3942855121476775E-033
  -84.989999999999995          5.8617767004760522E-033
  -84.974999999999994          7.4722120426262480E-033
  -84.959999999999994          9.2206570337187037E-033
  -84.944999999999993          1.1098967701954129E-032
  -84.930000000000007          1.3095453756013595E-032
  -84.915000000000006          1.5194566344371602E-032
  -84.900000000000006          1.7376596834868674E-032
  -84.885000000000005          1.9617397634803045E-032
  -84.870000000000005          2.1888163255107814E-032
  -84.855000000000004          2.4155226068207493E-032
  -84.840000000000003          2.6379918187431783E-032
  -84.825000000000003          2.8518489182411017E-032
  -84.810000000000002          3.0522084038557081E-032
  -84.795000000000002          3.2336812217356529E-032
  -84.780000000000001          3.3903869613909474E-032
  -84.765000000000001          3.5159779533271514E-032
  -84.750000000000000          3.6036724767607834E-032
  -84.734999999999999          3.6462976651631258E-032
  -84.719999999999999          3.6363459299890643E-032
  -84.704999999999998          3.5660422577286727E-032
  -84.689999999999998          3.4274282577532962E-032
  -84.674999999999997          3.2124576712315565E-032
  -84.659999999999997          2.9131101002077929E-032
  -84.644999999999996          2.5215206058542413E-032
  -84.629999999999995          2.0301281146328251E-032
  -84.614999999999995          1.4318427793033534E-032
  -84.599999999999994          7.2023361720927131E-033
  -84.584999999999994         -1.1026429047590839E-033
  -84.569999999999993         -1.0641196406281344E-032
  -84.555000000000007         -2.1444540503315114E-032
  -84.540000000000006         -3.3527699666702834E-032
  -84.525000000000006         -4.6886572890528073E-032
  -84.510000000000005         -6.1494823223860657E-032
  -84.495000000000005         -7.7300584917206430E-032
  -84.480000000000004         -9.4223042733946360E-032
  -84.465000000000003         -1.1214893191590696E-031
  -84.450000000000003         -1.3092899406789258E-031
  -84.435000000000002         -1.5037445655210467E-031
  -84.420000000000002         -1.7025367645177018E-031
  -84.405000000000001         -1.9028897849133787E-031
  -84.390000000000001         -2.1015384560497984E-031
  -84.375000000000000         -2.2947065023249442E-031
  -84.359999999999999         -2.4780892634261050E-031
  -84.344999999999999         -2.6468455834188543E-031
  -84.329999999999998         -2.7955985160436606E-031
  -84.314999999999998         -2.9184501359447084E-031
  -84.299999999999997         -3.0090076346444856E-031
  -84.284999999999997         -3.0604277542302453E-031
  -84.269999999999996         -3.0654790885545988E-031
  -84.254999999999995         -3.0166236625434632E-031
  -84.239999999999995         -2.9061213160944141E-031
  -84.224999999999994         -2.7261590084552760E-031
  -84.209999999999994         -2.4690033973908592E-031
  -84.194999999999993         -2.1271811600163761E-031
  -84.180000000000007         -1.6936849394077047E-031
  -84.165000000000006         -1.1622059749334170E-031
  -84.150000000000006         -5.2739141796817340E-032
  -84.135000000000005          2.1487413721025480E-032
  -84.120000000000005          1.0671670215705648E-031
  -84.105000000000004          2.0302061674577197E-031
  -84.090000000000003          3.1025219718343212E-031
  -84.075000000000003          4.2801206926434508E-031
  -84.060000000000002          5.5561489627209443E-031
  -84.045000000000002          6.9205687656073898E-031
  -84.030000000000001          8.3598534527090052E-031
  -84.015000000000001          9.8567119723229350E-031
  -84.000000000000000          1.1389854711162566E-030
  -83.984999999999999          1.2933814819216205E-030
  -83.969999999999999          1.4458839123871317E-030
  -83.954999999999998          1.5930858037259151E-030
  -83.939999999999998          1.7311546681960977E-030
  -83.924999999999997          1.8558503566149414E-030
  -83.909999999999997          1.9625534583023589E-030
  -83.894999999999996          2.0463086533125718E-030
  -83.879999999999995          2.1018809480838540E-030
  -83.864999999999995          2.1238278978114464E-030
  -83.849999999999994          2.1065863109108735E-030
  -83.834999999999994          2.0445753163626232E-030
  -83.819999999999993          1.9323159820172870E-030
  -83.805000000000007          1.7645650388329091E-030
  -83.790000000000006          1.5364629931631900E-030
  -83.775000000000006          1.2436964390174486E-030
  -83.760000000000005          8.8267080871041816E-031
  -83.745000000000005          4.5069168111091803E-031
  -83.730000000000004         -5.3847192159261199E-032
  -83.715000000000003         -6.3127352129271351E-031
  -83.700000000000003         -1.2804471884411046E-030
  -83.685000000000002         -1.9985766237426300E-030
  -83.670000000000002         -2.7810452847234183E-030
  -83.655000000000001         -3.6212534759002128E-030
  -83.640000000000001         -4.5104801576644890E-030
  -83.625000000000000         -5.4377717915366405E-030
  -83.609999999999999         -6.3898631588665081E-030
  -83.594999999999999         -7.3511354191949419E-030
  -83.579999999999998         -8.3036161102538018E-030
  -83.564999999999998         -9.2270280485309514E-030
  -83.549999999999997         -1.0098892020456746E-029
  -83.534999999999997         -1.0894686273477552E-029
  -83.519999999999996         -1.1588064687807259E-029
  -83.504999999999995         -1.2151142656653402E-029
  -83.489999999999995         -1.2554843151754041E-029
  -83.474999999999994         -1.2769311249705635E-029
  -83.459999999999994         -1.2764397119081909E-029
  -83.444999999999993         -1.2510195431281561E-029
  -83.430000000000007         -1.1977649470585031E-029
  -83.415000000000006         -1.1139214677205661E-029
  -83.400000000000006         -9.9695635677419894E-030
  -83.385000000000005         -8.4463388038786639E-030
  -83.370000000000005         -6.5509393630082729E-030
  -83.355000000000004         -4.2693273975537486E-030
  -83.340000000000003         -1.5928480717484048E-030
  -83.325000000000003          1.4809513539004103E-030
  -83.310000000000002          4.9475184248708321E-030
  -83.295000000000002          8.7945228636995713E-030
  -83.280000000000001          1.3001128515800788E-029
  -83.265000000000001          1.7537334508392345E-029
  -83.250000000000000          2.2363376406653721E-029
  -83.234999999999999          2.7429250749770994E-029
  -83.219999999999999          3.2674343406642883E-029
  -83.204999999999998          3.8027173788310009E-029
  -83.189999999999998          4.3405312093152598E-029
  -83.174999999999997          4.8715459052427242E-029
  -83.159999999999997          5.3853689680775482E-029
  -83.144999999999996          5.8705919712382218E-029
  -83.129999999999995          6.3148576667190703E-029
  -83.114999999999995          6.7049499621298439E-029
  -83.099999999999994          7.0269076709330581E-029
  -83.084999999999994          7.2661635405118540E-029
  -83.069999999999993          7.4077109654808091E-029
  -83.055000000000007          7.4362953769741614E-029
  -83.040000000000006          7.3366345208831982E-029
  -83.025000000000006          7.0936664213365959E-029
  -83.010000000000005          6.6928268349830339E-029
  -82.995000000000005          6.1203489738387890E-029
  -82.980000000000004          5.3635957282031429E-029
  -82.965000000000003          4.4114132553591092E-029
  -82.950000000000003          3.2545098461046809E-029
  -82.935000000000002          1.8858540505835218E-029
  -82.920000000000002          3.0109213864673983E-030
  -82.905000000000001         -1.5010225531864634E-029
  -82.890000000000001         -3.5181904194235064E-029
  -82.875000000000000         -5.7441257814400339E-029
  -82.859999999999999         -8.1681192650390376E-029
  -82.844999999999999         -1.0774612666461960E-028
  -82.829999999999998         -1.3542799923778344E-028
  -82.814999999999998         -1.6446254870738766E-028
  -82.799999999999997         -1.9452607439802936E-028
  -82.784999999999997         -2.2523276439359918E-028
  -82.769999999999996         -2.5613272145908826E-028
  -82.754999999999995         -2.8671085563087023E-028
  -82.739999999999995         -3.1638683606845261E-028
  -82.724999999999994         -3.4451624661244344E-028
  -82.709999999999994         -3.7039299319698173E-028
  -82.694999999999993         -3.9325334830262073E-028
  -82.680000000000007         -4.1228170467203675E-028
  -82.665000000000006         -4.2661808643681229E-028
  -82.650000000000006         -4.3536777876715794E-028
  -82.635000000000005         -4.3761293159982736E-028
  -82.620000000000005         -4.3242640225959253E-028
  -82.605000000000004         -4.1888807771552246E-028
  -82.590000000000003         -3.9610302647070900E-028
  -82.575000000000003         -3.6322239490216347E-028
  -82.560000000000002         -3.1946608508591184E-028
  -82.545000000000002         -2.6414771966389879E-028
  -82.530000000000001         -1.9670111134366093E-028
  -82.515000000000001         -1.1670845369788776E-028
  -82.500000000000000         -2.3929447845564971E-029
  -82.484999999999999          8.1668794476373383E-029
  -82.469999999999999          1.9988186890625152E-028
  -82.454999999999998          3.3023867793334463E-028
  -82.439999999999998          4.7197330329289421E-028
  -82.424999999999997          6.2399899086553115E-028
  -82.409999999999997          7.8488491914732158E-028
  -82.394999999999996          9.5283689180207433E-028
  -82.379999999999995          1.1256826524455151E-027
  -82.364999999999995          1.3008634105535309E-027
  -82.349999999999994          1.4754314340497399E-027
  -82.334999999999994          1.6460563085778104E-027
  -82.319999999999993          1.8090389004935580E-027
  -82.305000000000007          1.9603357198787416E-027
  -82.290000000000006          2.0955933946870683E-027
  -82.275000000000006          2.2101937375048920E-027
  -82.260000000000005          2.2993105604845726E-027
  -82.245000000000005          2.3579788162294799E-027
  -82.230000000000004          2.3811741387006964E-027
  -82.215000000000003          2.3639056730403372E-027
  -82.200000000000003          2.3013187276375852E-027
  -82.185000000000002          2.1888089817743939E-027
  -82.170000000000002          2.0221447821769556E-027
  -82.155000000000001          1.7975982988449145E-027
  -82.140000000000001          1.5120822660774178E-027
  -82.125000000000000          1.1632905753590563E-027
  -82.109999999999999          7.4984045713800838E-028
  -82.094999999999999          2.7141362741683990E-028
  -82.079999999999998         -2.7110733233330942E-028
  -82.064999999999998         -8.7551013045944628E-028
  -82.049999999999997         -1.5381353796966134E-027
  -82.034999999999997         -2.2537738728794808E-027
  -82.019999999999996         -3.0155831661016295E-027
  -82.004999999999995         -3.8150260934020769E-027
  -81.989999999999995         -4.6418366778052615E-027
  -81.974999999999994         -5.4840154127926784E-027
  -81.960000000000008         -6.3278577660660570E-027
  -81.944999999999993         -7.1580198537584642E-027
  -81.930000000000007         -7.9576235962092680E-027
  -81.915000000000006         -8.7084011627099666E-027
  -81.900000000000006         -9.3908852533826938E-027
  -81.885000000000005         -9.9846409811455234E-027
  -81.870000000000005         -1.0468540894508527E-026
  -81.855000000000004         -1.0821086222688499E-026
  -81.840000000000003         -1.1020765868950590E-026