  -90.000000000000000          0.0000000000000000     
  -89.984999999999999          0.0000000000000000     
  -89.969999999999999          0.0000000000000000     
  -89.954999999999998         -1.2015252354052896E-016
  -89.939999999999998         -8.2378882793442544E-016
  -89.924999999999997         -3.2099643377928901E-015
  -89.909999999999997         -9.3296520208290164E-015
  -89.894999999999996         -2.2472165255482852E-014
  -89.879999999999995         -4.7366760036818278E-014
  -89.864999999999995         -9.0248982061429811E-014
  -89.849999999999994         -1.5875203983415492E-013
  -89.834999999999994         -2.6159925462822253E-013
  -89.819999999999993         -4.0809326404267487E-013
  -89.805000000000007         -6.0741965927577080E-013
  -89.790000000000006         -8.6780333353325689E-013
  -89.775000000000006         -1.1955766238136434E-012
  -89.760000000000005         -1.5942320163650492E-012
  -89.745000000000005         -2.0635418287312524E-012
  -89.730000000000004         -2.5988310895647126E-012
  -89.715000000000003         -3.1904791308878799E-012
  -89.700000000000003         -3.8237182517497637E-012
  -89.685000000000002         -4.4787706529603177E-012
  -89.670000000000002         -5.1313467364089149E-012
  -89.655000000000001         -5.7534862291097610E-012
  -89.640000000000001         -6.3147065701429916E-012
  -89.625000000000000         -6.7833820158180735E-012
  -89.609999999999999         -7.1282593543109396E-012
  -89.594999999999999         -7.3199953043445731E-012
  -89.579999999999998         -7.3325850599714748E-012
  -89.564999999999998         -7.1445696581129425E-012
  -89.549999999999997         -6.7398951003605490E-012
  -89.534999999999997         -6.1083403959938387E-012
  -89.519999999999996         -5.2454516424882414E-012
  -89.504999999999995         -4.1519587247462741E-012
  -89.489999999999995         -2.8326978349785259E-012
  -89.474999999999994         -1.2951003117156468E-012
  -89.459999999999994          4.5264226394836626E-013
  -89.444999999999993          2.4035953349182959E-012
  -89.430000000000007          4.5541105608837285E-012
  -89.415000000000006          6.9056821892787834E-012
  -89.400000000000006          9.4664423869184056E-012
  -89.385000000000005          1.2252123794687098E-011
  -89.370000000000005          1.5286343371667677E-011
  -89.355000000000004          1.8600102361099324E-011
  -89.340000000000003          2.2230455323790643E-011
  -89.325000000000003          2.6218348672668590E-011
  -89.310000000000002          3.0605722817211856E-011
  -89.295000000000002          3.5431983735900729E-011
  -89.280000000000001          4.0730075562267487E-011
  -89.265000000000001          4.6522369290258325E-011
  -89.250000000000000          5.2816643419939524E-011
  -89.234999999999999          5.9602482671561319E-011
  -89.219999999999999          6.6848353241777403E-011
  -89.204999999999998          7.4499566238284132E-011
  -89.189999999999998          8.2477476237574621E-011
  -89.174999999999997          9.0679949660277259E-011
  -89.159999999999997          9.8983217455828054E-011
  -89.144999999999996          1.0724511556592375E-010
  -89.129999999999995          1.1530960214445329E-010
  -89.114999999999995          1.2301237806155996E-010
  -89.099999999999994          1.3018729150271469E-010
  -89.084999999999994          1.3667322829036266E-010
  -89.069999999999993          1.4232116873902356E-010
  -89.055000000000007          1.4700080042118202E-010
  -89.040000000000006          1.5060651337162057E-010
  -89.025000000000006          1.5306225731315237E-010
  -89.010000000000005          1.5432492783684637E-010
  -88.995000000000005          1.5438617051444226E-010
  -88.980000000000004          1.5327218660932118E-010
  -88.965000000000003          1.5104181794178828E-010
  -88.950000000000003          1.4778261947512306E-010
  -88.935000000000002          1.4360550248948556E-010
  -88.920000000000002          1.3863780956580030E-010
  -88.905000000000001          1.3301544588006919E-010
  -88.890000000000001          1.2687456640847472E-010
  -88.875000000000000          1.2034299945451465E-010
  -88.859999999999999          1.1353226692101259E-010
  -88.844999999999999          1.0653038867713960E-010
  -88.829999999999998          9.9396033070853207E-011
  -88.814999999999998          9.2154360531448987E-011
  -88.799999999999997          8.4794754551253959E-011
  -88.784999999999997          7.7270675968854619E-011
  -88.769999999999996          6.9501529531557082E-011
  -88.754999999999995          6.1376542737079376E-011
  -88.739999999999995          5.2760368990378836E-011
  -88.724999999999994          4.3500137519858484E-011
  -88.709999999999994          3.3433436574803466E-011
  -88.694999999999993          2.2396912449651474E-011
  -88.680000000000007          1.0234854630475354E-011
  -88.665000000000006         -3.1926371268919951E-012
  -88.650000000000006         -1.8002363488811568E-011
  -88.635000000000005         -3.4282004318653136E-011
  -88.620000000000005         -5.2085658702738513E-011
  -88.605000000000004         -7.1431062453886085E-011
  -88.590000000000003         -9.2298696463544161E-011
  -88.575000000000003         -1.1463250487731003E-010
  -88.560000000000002         -1.3834229595222070E-010
  -88.545000000000002         -1.6330739538439332E-010
  -88.530000000000001         -1.8938124679568347E-010
  -88.515000000000001         -2.1639667835415821E-010
  -88.500000000000000         -2.4417123878350822E-010
  -88.484999999999999         -2.7251245704462690E-010
  -88.469999999999999         -3.0122238037222360E-010
  -88.454999999999998         -3.3010133515531948E-010
  -88.439999999999998         -3.5895075800596032E-010
  -88.424999999999997         -3.8757469456029980E-010
  -88.409999999999997         -4.1578041010126299E-010
  -88.394999999999996         -4.4337783444703405E-010
  -88.379999999999995         -4.7017845172803163E-010
  -88.364999999999995         -4.9599363505237193E-010
  -88.349999999999994         -5.2063281463787803E-010
  -88.334999999999994         -5.4390231207790407E-010
  -88.319999999999993         -5.6560439665176432E-010
  -88.305000000000007         -5.8553767390279177E-010
  -88.290000000000006         -6.0349841790596770E-010
  -88.275000000000006         -6.1928367989239064E-010
  -88.260000000000005         -6.3269545158561868E-010
  -88.245000000000005         -6.4354638285024635E-010
  -88.230000000000004         -6.5166633200774982E-010
  -88.215000000000003         -6.5691019290881059E-010
  -88.200000000000003         -6.5916533342758044E-010
  -88.185000000000002         -6.5835914497824888E-010
  -88.170000000000002         -6.5446587038664461E-010
  -88.155000000000001         -6.4751148887154386E-010
  -88.140000000000001         -6.3757715773604673E-010
  -88.125000000000000         -6.2479998952369442E-010
  -88.109999999999999         -6.0937083157242000E-010
  -88.094999999999999         -5.9152938103324004E-010
  -88.079999999999998         -5.7155591370872116E-010
  -88.064999999999998         -5.4976034835618748E-010
  -88.049999999999997         -5.2646870196682016E-010
  -88.034999999999997         -5.0200726908755655E-010
  -88.019999999999996         -4.7668574643111583E-010
  -88.004999999999995         -4.5077971910778558E-010
  -87.989999999999995         -4.2451323012393516E-010
  -87.974999999999994         -3.9804293194833917E-010
  -87.959999999999994         -3.7144423647994529E-010
  -87.944999999999993         -3.4470035159550605E-010
  -87.930000000000007         -3.1769523123337251E-010
  -87.915000000000006         -2.9021077208035706E-010
  -87.900000000000006         -2.6192847890627036E-010
  -87.885000000000005         -2.3243613977985689E-010
  -87.870000000000005         -2.0123901156576807E-010
  -87.855000000000004         -1.6777546019142164E-010
  -87.840000000000003         -1.3143633403878141E-010
  -87.825000000000003         -9.1587390449454631E-011
  -87.810000000000002         -4.7593831653536256E-011
  -87.795000000000002          1.1540254429148744E-012
  -87.780000000000001          5.5215082506165913E-011
  -87.765000000000001          1.1507284708445198E-010
  -87.750000000000000          1.8111293020872665E-010
  -87.734999999999999          2.5360352706726985E-010
  -87.719999999999999          3.3267977261886017E-010
  -87.704999999999998          4.1833236874566637E-010
  -87.689999999999998          5.1040094373178135E-010
  -87.674999999999997          6.0857252570656328E-010
  -87.659999999999997          7.1238459575795332E-010
  -87.644999999999996          8.2123274847134553E-010
  -87.629999999999995          9.3438257131595037E-010
  -87.614999999999995          1.0509845216333247E-009
  -87.599999999999994          1.1700922453172780E-009
  -87.584999999999994          1.2906817836721984E-009
  -87.569999999999993          1.4116730007174283E-009
  -87.555000000000007          1.5319500112909168E-009
  -87.540000000000006          1.6503822752866881E-009
  -87.525000000000006          1.7658439155354699E-009
  -87.510000000000005          1.8772319254622971E-009
  -87.495000000000005          1.9834820452757640E-009
  -87.480000000000004          2.0835828618004371E-009
  -87.465000000000003          2.1765880209301258E-009
  -87.450000000000003          2.2616251094120798E-009
  -87.435000000000002          2.3379047586757906E-009
  -87.420000000000002          2.4047255298143000E-009
  -87.405000000000001          2.4614799087885331E-009
  -87.390000000000001          2.5076574150517672E-009
  -87.375000000000000          2.5428472660848911E-009
  -87.359999999999999          2.5667414860208737E-009
  -87.344999999999999          2.5791357938231840E-009
  -87.329999999999998          2.5799309355534206E-009
  -87.314999999999998          2.5691335725497311E-009
  -87.299999999999997          2.5468551712037879E-009
  -87.284999999999997          2.5133115588715782E-009
  -87.269999999999996          2.4688195932043300E-009
  -87.254999999999995          2.4137933873902284E-009
  -87.239999999999995          2.3487380929054780E-009
  -87.224999999999994          2.2742410177301053E-009
  -87.209999999999994          2.1909605241177132E-009
  -87.194999999999993          2.0996135940976046E-009
  -87.180000000000007          2.0009600643078329E-009
  -87.165000000000006          1.8957846403822032E-009
  -87.150000000000006          1.7848776900919461E-009
  -87.135000000000005          1.6690149262643672E-009
  -87.120000000000005          1.5489362015230768E-009
  -87.105000000000004          1.4253251912066389E-009
  -87.090000000000003          1.2987902975325483E-009
  -87.075000000000003          1.1698471080734407E-009
  -87.060000000000002          1.0389040738800759E-009
  -87.045000000000002          9.0625212889605677E-010
  -87.030000000000001          7.7205863924234563E-010
  -87.015000000000001          6.3636568237157576E-010
  -87.000000000000000          4.9909398835978891E-010
  -86.984999999999999          3.6005190495735917E-010
  -86.969999999999999          2.1894890067652995E-010
  -86.954999999999998          7.5413848776850756E-011
  -86.939999999999998         -7.0983004196722987E-011
  -86.924999999999997         -2.2070525962369913E-010
  -86.909999999999997         -3.7422381859997245E-010
  -86.894999999999996         -5.3198967453482737E-010
  -86.879999999999995         -6.9440703187595432E-010
  -86.864999999999995         -8.6180873548613590E-010
  -86.849999999999994         -1.0344339829160276E-009
  -86.834999999999994         -1.2124100612354027E-009
  -86.819999999999993         -1.3957390798680080E-009
  -86.805000000000007         -1.5842892553408205E-009
  -86.790000000000006         -1.7777922467487883E-009
  -86.775000000000006         -1.9758454872231823E-009
  -86.760000000000005         -2.1779198444704662E-009
  -86.745000000000005         -2.3833728324262893E-009
  -86.730000000000004         -2.5914641543778316E-009
  -86.715000000000003         -2.8013753539113395E-009
  -86.700000000000003         -3.0122315752834083E-009
  -86.685000000000002         -3.2231233237922652E-009
  -86.670000000000002         -3.4331275600152367E-009
  -86.655000000000001         -3.6413283499570070E-009
  -86.640000000000001         -3.8468335183949875E-009
  -86.625000000000000         -4.0487906360908710E-009
  -86.609999999999999         -4.2463939031733844E-009
  -86.594999999999999         -4.4388928088778812E-009
  -86.579999999999998         -4.6255919095017362E-009
  -86.564999999999998         -4.8058468316014569E-009
  -86.549999999999997         -4.9790589429221654E-009
  -86.534999999999997         -5.1446638060781424E-009
  -86.519999999999996         -5.3021174117873215E-009
  -86.504999999999995         -5.4508833002842039E-009
  -86.489999999999995         -5.5904165741083034E-009
  -86.474999999999994         -5.7201496872494317E-009
  -86.459999999999994         -5.8394782342929830E-009
  -86.444999999999993         -5.9477525127249464E-009
  -86.430000000000007         -6.0442673088800802E-009
  -86.415000000000006         -6.1282596774958620E-009
  -86.400000000000006         -6.1989089417124887E-009
  -86.385000000000005         -6.2553402457865559E-009
  -86.370000000000005         -6.2966329927860443E-009
  -86.355000000000004         -6.3218341672666156E-009
  -86.340000000000003         -6.3299725461263279E-009
  -86.325000000000003         -6.3200760180848192E-009
  -86.310000000000002         -6.2911924558761712E-009
  -86.295000000000002         -6.2424092561741418E-009
  -86.280000000000001         -6.1728750999634485E-009
  -86.265000000000001         -6.0818190483757917E-009
  -86.250000000000000         -5.9685674180798287E-009
  -86.234999999999999         -5.8325628771171978E-009
  -86.219999999999999         -5.6733759912219739E-009
  -86.204999999999998         -5.4907163260509151E-009
  -86.189999999999998         -5.2844417730568694E-009
  -86.174999999999997         -5.0545607699348238E-009
  -86.159999999999997         -4.8012371856032132E-009
  -86.144999999999996         -4.5247872115794507E-009
  -86.129999999999995         -4.2256789178907184E-009
  -86.114999999999995         -3.9045260358250289E-009
  -86.099999999999994         -3.5620839611283373E-009
  -86.084999999999994         -3.1992426485771830E-009
  -86.069999999999993         -2.8170192845067277E-009
  -86.055000000000007         -2.4165518475172121E-009
  -86.040000000000006         -1.9990906707789691E-009
  -86.025000000000006         -1.5659926688726955E-009
  -86.010000000000005         -1.1187122339606503E-009
  -85.995000000000005         -6.5879385280354086E-010
  -85.980000000000004         -1.8786333599862814E-010
  -85.965000000000003          2.9238175769386032E-010
  -85.950000000000003          7.8018308480309884E-010
  -85.935000000000002          1.2737343402235979E-009
  -85.920000000000002          1.7711954125587681E-009
  -85.905000000000001          2.2707089541995629E-009
  -85.890000000000001          2.7704190053157163E-009
  -85.875000000000000          3.2684908113367328E-009
  -85.859999999999999          3.7631324723008674E-009
  -85.844999999999999          4.2526195898062724E-009
  -85.829999999999998          4.7353143628470207E-009
  -85.814999999999998          5.2096909008980674E-009
  -85.799999999999997          5.6743547638404834E-009
  -85.784999999999997          6.1280629459758984E-009
  -85.769999999999996          6.5697358664351668E-009
  -85.754999999999995          6.9984706918546635E-009
  -85.739999999999995          7.4135440009115428E-009
  -85.724999999999994          7.8144140047697874E-009
  -85.709999999999994          8.2007103330283826E-009
  -85.694999999999993          8.5722255960263283E-009
  -85.680000000000007          8.9288922922037273E-009
  -85.665000000000006          9.2707583831952434E-009
  -85.650000000000006          9.5979606484775104E-009
  -85.635000000000005          9.9106891582323442E-009
  -85.620000000000005          1.0209149081674695E-008
  -85.605000000000004          1.0493529600807960E-008
  -85.590000000000003          1.0763960389681415E-008
  -85.575000000000003          1.1020482304502366E-008
  -85.560000000000002          1.1263016297391459E-008
  -85.545000000000002          1.1491333218316413E-008
  -85.530000000000001          1.1705039604237299E-008
  -85.515000000000001          1.1903563468251832E-008
  -85.500000000000000          1.2086148082346426E-008
  -85.484999999999999          1.2251859082823557E-008
  -85.469999999999999          1.2399595128442797E-008
  -85.454999999999998          1.2528104775810789E-008
  -85.439999999999998          1.2636014901090675E-008
  -85.424999999999997          1.2721862674425211E-008
  -85.409999999999997          1.2784126646181448E-008
  -85.394999999999996          1.2821267603158049E-008
  -85.379999999999995          1.2831768536614163E-008
  -85.364999999999995          1.2814166616692546E-008
  -85.349999999999994          1.2767093160448439E-008
  -85.334999999999994          1.2689302941737424E-008
  -85.319999999999993          1.2579698172032749E-008
  -85.305000000000007          1.2437351593064250E-008
  -85.290000000000006          1.2261518911316216E-008
  -85.275000000000006          1.2051645015276335E-008
  -85.260000000000005          1.1807364863614112E-008
  -85.245000000000005          1.1528499932467184E-008
  -85.230000000000004          1.1215047557300295E-008
  -85.215000000000003          1.0867167610228989E-008
  -85.200000000000003          1.0485165624629644E-008
  -85.185000000000002          1.0069478584284752E-008
  -85.170000000000002          9.6206571598145274E-009
  -85.155000000000001          9.1393514978221901E-009
  -85.140000000000001          8.6262961218608325E-009
  -85.125000000000000          8.0823081560765786E-009
  -85.109999999999999          7.5082748907107089E-009
  -85.094999999999999          6.9051595552593881E-009
  -85.079999999999998          6.2740022066520851E-009
  -85.064999999999998          5.6159277228573501E-009
  -85.049999999999997          4.9321551287562215E-009
  -85.034999999999997          4.2240118069969412E-009
  -85.019999999999996          3.4929432679575712E-009
  -85.004999999999995          2.7405278046899184E-009
  -84.989999999999995          1.9684849306145225E-009
  -84.974999999999994          1.1786832621041299E-009
  -84.959999999999994          3.7314279444089493E-010
  -84.944999999999993         -4.4596656922912814E-010
  -84.930000000000007         -1.2763324841458257E-009
  -84.915000000000006         -2.1155130980332615E-009
  -84.900000000000006         -2.9609548146680709E-009
  -84.885000000000005         -3.8100158583631583E-009
  -84.870000000000005         -4.6599915037859319E-009
  -84.855000000000004         -5.5081463834483202E-009
  -84.840000000000003         -6.3517440196392272E-009
  -84.825000000000003         -7.1880790208922463E-009
  -84.810000000000002         -8.0145072800519301E-009
  -84.795000000000002         -8.8284739518940114E-009
  -84.780000000000001         -9.6275378780319443E-009
  -84.765000000000001         -1.0409391570931348E-008
  -84.750000000000000         -1.1171876757032351E-008
  -84.734999999999999         -1.1912992370355369E-008
  -84.719999999999999         -1.2630900769750042E-008
  -84.704999999999998         -1.3323921521646298E-008
  -84.689999999999998         -1.3990531400054351E-008
  -84.674999999999997         -1.4629351952066827E-008
  -84.659999999999997         -1.5239137951539306E-008
  -84.644999999999996         -1.5818764964592447E-008
  -84.629999999999995         -1.6367216915114113E-008
  -84.614999999999995         -1.6883575426618336E-008
  -84.599999999999994         -1.7367003835033756E-008
  -84.584999999999994         -1.7816745412346791E-008
  -84.569999999999993         -1.8232119813887948E-008
  -84.555000000000007         -1.8612514196547636E-008
  -84.540000000000006         -1.8957392100560355E-008
  -84.525000000000006         -1.9266289896791022E-008
  -84.510000000000005         -1.9538830997589685E-008
  -84.495000000000005         -1.9774720527721001E-008
  -84.480000000000004         -1.9973757758862121E-008
  -84.465000000000003         -2.0135830780532160E-008
  -84.450000000000003         -2.0260920052805886E-008
  -84.435000000000002         -2.0349094853600036E-008
  -84.420000000000002         -2.0400495515104922E-008
  -84.405000000000001         -2.0415324542000235E-008
  -84.390000000000001         -2.0393823518816134E-008
  -84.375000000000000         -2.0336248240937493E-008
  -84.359999999999999         -2.0242838516537631E-008
  -84.344999999999999         -2.0113787968512042E-008
  -84.329999999999998         -1.9949213836412127E-008
  -84.314999999999998         -1.9749128554735762E-008
  -84.299999999999997         -1.9513404225790509E-008
  -84.284999999999997         -1.9241758408838905E-008
  -84.269999999999996         -1.8933739909243741E-008
  -84.254999999999995         -1.8588723449397548E-008
  -84.239999999999995         -1.8205913221436276E-008
  -84.224999999999994         -1.7784358874450845E-008
  -84.209999999999994         -1.7322989265267097E-008
  -84.194999999999993         -1.6820647985582582E-008
  -84.180000000000007         -1.6276143099958063E-008
  -84.165000000000006         -1.5688300436522695E-008
  -84.150000000000006         -1.5056038193961285E-008
  -84.135000000000005         -1.4378421120397888E-008
  -84.120000000000005         -1.3654739561275164E-008
  -84.105000000000004         -1.2884568967308496E-008
  -84.090000000000003         -1.2067832066975370E-008
  -84.075000000000003         -1.1204846828150039E-008
  -84.060000000000002         -1.0296370867024507E-008
  -84.045000000000002         -9.3436263171042810E-009
  -84.030000000000001         -8.3483104873494085E-009
  -84.015000000000001         -7.3125971944421053E-009
  -84.000000000000000         -6.2391150024154740E-009
  -83.984999999999999         -5.1309139159627648E-009
  -83.969999999999999         -3.9914196392487611E-009
  -83.954999999999998         -2.8243751781786841E-009
  -83.939999999999998         -1.6337743380390179E-009
  -83.924999999999997         -4.2378850428903547E-010
  -83.909999999999997          8.0130824198221262E-010
  -83.894999999999996          2.0372139530877575E-009
  -83.879999999999995          3.2796705351501032E-009
  -83.864999999999995          4.5245283075701082E-009
  -83.849999999999994          5.7678031240016026E-009
  -83.834999999999994          7.0057235568299348E-009
  -83.819999999999993          8.2347657581749445E-009
  -83.805000000000007          9.4516749982176407E-009
  -83.790000000000006          1.0653485205125435E-008
  -83.775000000000006          1.1837514080070832E-008
  -83.760000000000005          1.3001363541320643E-008
  -83.745000000000005          1.4142901072489167E-008
  -83.730000000000004          1.5260244623505059E-008
  -83.715000000000003          1.6351743070686098E-008
  -83.700000000000003          1.7415949571386591E-008
  -83.685000000000002          1.8451610017677922E-008
  -83.670000000000002          1.9457640831888057E-008
  -83.655000000000001          2.0433114755746828E-008
  -83.640000000000001          2.1377255521315419E-008
  -83.625000000000000          2.2289436074629521E-008
  -83.609999999999999          2.3169173246628816E-008
  -83.594999999999999          2.4016134858584337E-008
  -83.579999999999998          2.4830145051168984E-008
  -83.564999999999998          2.5611186060814362E-008
  -83.549999999999997          2.6359408877851820E-008
  -83.534999999999997          2.7075129693798772E-008
  -83.519999999999996          2.7758819243217658E-008
  -83.504999999999995          2.8411102803715949E-008
  -83.489999999999995          2.9032738879664066E-008
  -83.474999999999994          2.9624592556842799E-008
  -83.459999999999994          3.0187603528020190E-008
  -83.444999999999993          3.0722752342171589E-008
  -83.430000000000007          3.1231024877342861E-008
  -83.415000000000006          3.1713355497231532E-008
  -83.400000000000006          3.2170589747693157E-008
  -83.385000000000005          3.2603452382318210E-008
  -83.370000000000005          3.3012497624440584E-008
  -83.355000000000004          3.3398087850855518E-008
  -83.340000000000003          3.3760372275537520E-008
  -83.325000000000003          3.4099279844213015E-008
  -83.310000000000002          3.4414522787074020E-008
  -83.295000000000002          3.4705614382346539E-008
  -83.280000000000001          3.4971893825286315E-008
  -83.265000000000001          3.5212565308029298E-008
  -83.250000000000000          3.5426751310296822E-008
  -83.234999999999999          3.5613538784673437E-008
  -83.219999999999999          3.5772032447312085E-008
  -83.204999999999998          3.5901429384921357E-008
  -83.189999999999998          3.6001051029188602E-008
  -83.174999999999997          3.6070410658339824E-008
  -83.159999999999997          3.6109245371562793E-008
  -83.144999999999996          3.6117544510716471E-008
  -83.129999999999995          3.6095560318472053E-008
  -83.114999999999995          3.6043822149167681E-008
  -83.099999999999994          3.5963118705240049E-008
  -83.084999999999994          3.5854476720942330E-008
  -83.069999999999993          3.5719121882493710E-008
  -83.055000000000007          3.5558450406369957E-008
  -83.040000000000006          3.5373968643170883E-008
  -83.025000000000006          3.5167253997769876E-008
  -83.010000000000005          3.4939898085895038E-008
  -82.995000000000005          3.4693478312419757E-008
  -82.980000000000004          3.4429508133371201E-008
  -82.965000000000003          3.4149419292361927E-008
  -82.950000000000003          3.3854551162448843E-008
  -82.935000000000002          3.3546136535278492E-008
  -82.920000000000002          3.3225337148223844E-008
  -82.905000000000001          3.2893247237097967E-008
  -82.890000000000001          3.2550939721431860E-008
  -82.875000000000000          3.2199505284324914E-008
  -82.859999999999999          3.1840098557722740E-008
  -82.844999999999999          3.1473977202267633E-008
  -82.829999999999998          3.1102555198003756E-008
  -82.814999999999998          3.0727438371513927E-008
  -82.799999999999997          3.0350445712201690E-008
  -82.784999999999997          2.9973630688573394E-008
  -82.769999999999996          2.9599267037383470E-008
  -82.754999999999995          2.9229848763634436E-008
  -82.739999999999995          2.8868042178942233E-008
  -82.724999999999994          2.8516641492615236E-008
  -82.709999999999994          2.8178510191878559E-008
  -82.694999999999993          2.7856497553102599E-008
  -82.680000000000007          2.7553364034815786E-008
  -82.665000000000006          2.7271697788933125E-008
  -82.650000000000006          2.7013825842914230E-008
  -82.635000000000005          2.6781739492776069E-008
  -82.620000000000005          2.6577019696105708E-008
  -82.605000000000004          2.6400785557711970E-008
  -82.590000000000003          2.6253657026131805E-008
  -82.575000000000003          2.6135717590136665E-008
  -82.560000000000002          2.6046523160516699E-008
  -82.545000000000002          2.5985112728221793E-008
  -82.530000000000001          2.5950035009714156E-008
  -82.515000000000001          2.5939399961316667E-008
  -82.500000000000000          2.5950937398988572E-008
  -82.484999999999999          2.5982068052599061E-008
  -82.469999999999999          2.6029974620200846E-008
  -82.454999999999998          2.6091676375017414E-008
  -82.439999999999998          2.6164107325143959E-008
  -82.424999999999997          2.6244180162393604E-008
  -82.409999999999997          2.6328846658429939E-008
  -82.394999999999996          2.6415140297331163E-008
  -82.379999999999995          2.6500220684511078E-008
  -82.364999999999995          2.6581387757573793E-008
  -82.349999999999994          2.6656095997168450E-008
  -82.334999999999994          2.6721957979702893E-008
  -82.319999999999993          2.6776728390132121E-008
  -82.305000000000007          2.6818296916530926E-008
  -82.290000000000006          2.6844675815596020E-008
  -82.275000000000006          2.6853969714579762E-008
  -82.260000000000005          2.6844377387647000E-008
  -82.245000000000005          2.6814179321377196E-008
  -82.230000000000004          2.6761735938407583E-008
  -82.215000000000003          2.6685500031931042E-008
  -82.200000000000003          2.6584032752907660E-008
  -82.185000000000002          2.6456030255417318E-008
  -82.170000000000002          2.6300355671082798E-008
  -82.155000000000001          2.6116074636206577E-008
  -82.140000000000001          2.5902497924334966E-008
  -82.125000000000000          2.5659213420681226E-008
  -82.109999999999999          2.5386116320191832E-008
  -82.094999999999999          2.5083435772899065E-008
  -82.079999999999998          2.4751740212991535E-008
  -82.064999999999998          2.4391939135171015E-008
  -82.049999999999997          2.4005265331084047E-008
  -82.034999999999997          2.3593235809471480E-008
  -82.019999999999996          2.3157607387247481E-008
  -82.004999999999995          2.2700307411582799E-008
  -81.989999999999995          2.2223368034701707E-008
  -81.974999999999994          2.1728833843326356E-008
  -81.960000000000008          2.1218681922618998E-008
  -81.944999999999993          2.0694731261983179E-008
  -81.930000000000007          2.0158571700790162E-008
  -81.915000000000006          1.9611478663250637E-008
  -81.900000000000006          1.9054374078564251E-008
  -81.885000000000005          1.8487773090214432E-008
  -81.870000000000005          1.7911771621470507E-008
  -81.855000000000004          1.7326049928101384E-008
  -81.840000000000003          1.6729895691014462E-008