  -90.000000000000000          0.0000000000000000     
  -89.984999999999999          0.0000000000000000     
  -89.969999999999999          0.0000000000000000     
  -89.954999999999998          0.0000000000000000     
  -89.939999999999998          0.0000000000000000     
  -89.924999999999997          1.2968514350121559E-023
  -89.909999999999997          1.3952326608622020E-022
  -89.894999999999996          8.1562482265527302E-022
  -89.879999999999995          3.4301923883577456E-021
  -89.864999999999995          1.1606143709750255E-020
  -89.849999999999994          3.3526282923976304E-020
  -89.834999999999994          8.5739558162502910E-020
  -89.819999999999993          1.9887611369458637E-019
  -89.805000000000007          4.2560626789658297E-019
  -89.790000000000006          8.5097896066769627E-019
  -89.775000000000006          1.6049632396953074E-018
  -89.760000000000005          2.8765941992276710E-018
  -89.745000000000005          4.9286204358670630E-018
  -89.730000000000004          8.1109914611020050E-018
  -89.715000000000003          1.2870980789342476E-017
  -89.700000000000003          1.9757256907304594E-017
  -89.685000000000002          2.9414873454630685E-017
  -89.670000000000002          4.2568047737126240E-017
  -89.655000000000001          5.9987660800492700E-017
  -89.640000000000001          8.2440975602432204E-017
  -89.625000000000000          1.1062168896568887E-016
  -89.609999999999999          1.4505969940810907E-016
  -89.594999999999999          1.8601104249033512E-016
  -89.579999999999998          2.3333036603512920E-016
  -89.564999999999998          2.8632950871240639E-016
  -89.549999999999997          3.4362763476457477E-016
  -89.534999999999997          4.0299940335074009E-016
  -89.519999999999996          4.6122913329599020E-016
  -89.504999999999995          5.1397885124008060E-016
  -89.489999999999995          5.5567870674988343E-016
  -89.474999999999994          5.7944729828278635E-016
  -89.459999999999994          5.7704818333880695E-016
  -89.444999999999993          5.3888701972439577E-016
  -89.430000000000007          4.5405158785919407E-016
  -89.415000000000006          3.1039498529332194E-016
  -89.400000000000006          9.4658115612485203E-017
  -89.385000000000005         -2.0737253844070873E-016
  -89.370000000000005         -6.1067952063042054E-016
  -89.355000000000004         -1.1308096310125803E-015
  -89.340000000000003         -1.7836565693396880E-015
  -89.325000000000003         -2.5852404815014012E-015
  -89.310000000000002         -3.5514869633346399E-015
  -89.295000000000002         -4.6980089496396690E-015
  -89.280000000000001         -6.0398891325917723E-015
  -89.265000000000001         -7.5914506275707831E-015
  -89.250000000000000         -9.3660142982216962E-015
  -89.234999999999999         -1.1375610977010838E-014
  -89.219999999999999         -1.3630636299299861E-014
  -89.204999999999998         -1.6139423375223852E-014
  -89.189999999999998         -1.8907704923769829E-014
  -89.174999999999997         -2.1937943269715460E-014
  -89.159999999999997         -2.5228503639472544E-014
  -89.144999999999996         -2.8772675838032932E-014
  -89.129999999999995         -3.2557527366357947E-014
  -89.114999999999995         -3.6562614237232657E-014
  -89.099999999999994         -4.0758554571782707E-014
  -89.084999999999994         -4.5105551374014299E-014
  -89.069999999999993         -4.9551901752827032E-014
  -89.055000000000007         -5.4032560354135353E-014
  -89.040000000000006         -5.8467899304633780E-014
  -89.025000000000006         -6.2762742594237031E-014
  -89.010000000000005         -6.6805752824226211E-014
  -88.995000000000005         -7.0469387161535557E-014
  -88.980000000000004         -7.3610402170389000E-014
  -88.965000000000003         -7.6071120973589257E-014
  -88.950000000000003         -7.7681479684118399E-014
  -88.935000000000002         -7.8261859883313467E-014
  -88.920000000000002         -7.7626795237043661E-014
  -88.905000000000001         -7.5589484487253306E-014
  -88.890000000000001         -7.1966995622389784E-014
  -88.875000000000000         -6.6586086687817070E-014
  -88.859999999999999         -5.9289453500834671E-014
  -88.844999999999999         -4.9942187429867502E-014
  -88.829999999999998         -3.8438182351678910E-014
  -88.814999999999998         -2.4706257005513432E-014
  -88.799999999999997         -8.7156378373643741E-015
  -88.784999999999997          9.5194399170567094E-015
  -88.769999999999996          2.9936312760311945E-014
  -88.754999999999995          5.2421903488008778E-014
  -88.739999999999995          7.6812383222654018E-014
  -88.724999999999994          1.0289461475779596E-013
  -88.709999999999994          1.3040946360981520E-013
  -88.694999999999993          1.5905699880022078E-013
  -88.680000000000007          1.8850349612405809E-013
  -88.665000000000006          2.1838996268949001E-013
  -88.650000000000006          2.4834219966921034E-013
  -88.635000000000005          2.7798163076964144E-013
  -88.620000000000005          3.0693698450934281E-013
  -88.605000000000004          3.3485605781258254E-013
  -88.590000000000003          3.6141695105434968E-013
  -88.575000000000003          3.8633877455680754E-013
  -88.560000000000002          4.0939062036227103E-013
  -88.545000000000002          4.3039909743830540E-013
  -88.530000000000001          4.4925326479761107E-013
  -88.515000000000001          4.6590720647818329E-013
  -88.500000000000000          4.8037973338771467E-013
  -88.484999999999999          4.9275096806675189E-013
  -88.469999999999999          5.0315627315652978E-013
  -88.454999999999998          5.1177687305017927E-013
  -88.439999999999998          5.1882819871937325E-013
  -88.424999999999997          5.2454568466586693E-013
  -88.409999999999997          5.2916888535967099E-013
  -88.394999999999996          5.3292418221440041E-013
  -88.379999999999995          5.3600711109186294E-013
  -88.364999999999995          5.3856409349545276E-013
  -88.349999999999994          5.4067568564658552E-013
  -88.334999999999994          5.4234047808243702E-013
  -88.319999999999993          5.4346175996922153E-013
  -88.305000000000007          5.4383635181981527E-013
  -88.290000000000006          5.4314696186844036E-013
  -88.275000000000006          5.4095839136306112E-013
  -88.260000000000005          5.3671769719570994E-013
  -88.245000000000005          5.2975874555161173E-013
  -88.230000000000004          5.1931126499732416E-013
  -88.215000000000003          5.0451445321800237E-013
  -88.200000000000003          4.8443475793302770E-013
  -88.185000000000002          4.5808794041021783E-013
  -88.170000000000002          4.2446463553204306E-013
  -88.155000000000001          3.8255932709868601E-013
  -88.140000000000001          3.3140189811126097E-013
  -88.125000000000000          2.7009080735829194E-013
  -88.109999999999999          1.9782781099028646E-013
  -88.094999999999999          1.1395261633167370E-013
  -88.079999999999998          1.7976954628140702E-014
  -88.064999999999998         -9.0382914911049661E-014
  -88.049999999999997         -2.1117642682276505E-013
  -88.034999999999997         -3.4419258350577853E-013
  -88.019999999999996         -4.8893853375753249E-013
  -88.004999999999995         -6.4462378577406776E-013
  -87.989999999999995         -8.1015120827199194E-013
  -87.974999999999994         -9.8411545839532932E-013
  -87.959999999999994         -1.1648092429830670E-012
  -87.944999999999993         -1.3502396900219593E-012
  -87.930000000000007         -1.5381525263549745E-012
  -87.915000000000006         -1.7260669889912483E-012
  -87.900000000000006         -1.9113191931929840E-012
  -87.885000000000005         -2.0911159089032072E-012
  -87.870000000000005         -2.2625950592269906E-012
  -87.855000000000004         -2.4228958683120139E-012
  -87.840000000000003         -2.5692332376175964E-012
  -87.825000000000003         -2.6989775431945917E-012
  -87.810000000000002         -2.8097370350504969E-012
  -87.795000000000002         -2.8994391523123886E-012
  -87.780000000000001         -2.9664105373472527E-012
  -87.765000000000001         -3.0094518457118857E-012
  -87.750000000000000         -3.0279023646023751E-012
  -87.734999999999999         -3.0216970418883715E-012
  -87.719999999999999         -2.9914055173912990E-012
  -87.704999999999998         -2.9382572763747561E-012
  -87.689999999999998         -2.8641475042362474E-012
  -87.674999999999997         -2.7716210403150310E-012
  -87.659999999999997         -2.6638352981778191E-012
  -87.644999999999996         -2.5444997671375535E-012
  -87.629999999999995         -2.4177925286861246E-012
  -87.614999999999995         -2.2882555225645085E-012
  -87.599999999999994         -2.1606683456298903E-012
  -87.584999999999994         -2.0399053540093304E-012
  -87.569999999999993         -1.9307767190612779E-012
  -87.555000000000007         -1.8378603760388357E-012
  -87.540000000000006         -1.7653268170186864E-012
  -87.525000000000006         -1.7167634501491502E-012
  -87.510000000000005         -1.6950044883293214E-012
  -87.495000000000005         -1.7019705957077580E-012
  -87.480000000000004         -1.7385256645754965E-012
  -87.465000000000003         -1.8043551678822989E-012
  -87.450000000000003         -1.8978724841689498E-012
  -87.435000000000002         -2.0161569896232079E-012
  -87.420000000000002         -2.1549281456478830E-012
  -87.405000000000001         -2.3085578587656030E-012
  -87.390000000000001         -2.4701252328285239E-012
  -87.375000000000000         -2.6315113282882052E-012
  -87.359999999999999         -2.7835351211480397E-012
  -87.344999999999999         -2.9161297942364994E-012
  -87.329999999999998         -3.0185526387477291E-012
  -87.314999999999998         -3.0796296502516585E-012
  -87.299999999999997         -3.0880235434710412E-012
  -87.284999999999997         -3.0325243184636808E-012
  -87.269999999999996         -2.9023502351455122E-012
  -87.254999999999995         -2.6874552930267193E-012
  -87.239999999999995         -2.3788328078200305E-012
  -87.224999999999994         -1.9688081460272899E-012
  -87.209999999999994         -1.4513104260038823E-012
  -87.194999999999993         -8.2211814396090932E-013
  -87.180000000000007         -7.9068851889085162E-014
  -87.165000000000006          7.7777259459288484E-013
  -87.150000000000006          1.7459926733576214E-012
  -87.135000000000005          2.8207590343359845E-012
  -87.120000000000005          3.9948066556105832E-012
  -87.105000000000004          5.2584785484310892E-012
  -87.090000000000003          6.5998265880162776E-012
  -87.075000000000003          8.0047643860603479E-012
  -87.060000000000002          9.4572787101565581E-012
  -87.045000000000002          1.0939685789190801E-011
  -87.030000000000001          1.2432936624673374E-011
  -87.015000000000001          1.3916956129178537E-011
  -87.000000000000000          1.5371016959253581E-011
  -86.984999999999999          1.6774137634456565E-011
  -86.969999999999999          1.8105482391117533E-011
  -86.954999999999998          1.9344779250696220E-011
  -86.939999999999998          2.0472719006181528E-011
  -86.924999999999997          2.1471350739044048E-011
  -86.909999999999997          2.2324439172272115E-011
  -86.894999999999996          2.3017790798385285E-011
  -86.879999999999995          2.3539536639360925E-011
  -86.864999999999995          2.3880366434303468E-011
  -86.849999999999994          2.4033693438174630E-011
  -86.834999999999994          2.3995770648266301E-011
  -86.819999999999993          2.3765723763946589E-011
  -86.805000000000007          2.3345530369978107E-011
  -86.790000000000006          2.2739915853109416E-011
  -86.775000000000006          2.1956199011685662E-011
  -86.760000000000005          2.1004057867979320E-011
  -86.745000000000005          1.9895248642987085E-011
  -86.730000000000004          1.8643276158969435E-011
  -86.715000000000003          1.7263017404456349E-011
  -86.700000000000003          1.5770326017294778E-011
  -86.685000000000002          1.4181609879482249E-011
  -86.670000000000002          1.2513410446723938E-011
  -86.655000000000001          1.0781989884245391E-011
  -86.640000000000001          9.0029407540104245E-012
  -86.625000000000000          7.1908295290468160E-012
  -86.609999999999999          5.3588886800293167E-012
  -86.594999999999999          3.5187657908969383E-012
  -86.579999999999998          1.6803370760792857E-012
  -86.564999999999998         -1.4840453627269767E-013
  -86.549999999999997         -1.9613848305927162E-012
  -86.534999999999997         -3.7544060742245033E-012
  -86.519999999999996         -5.5250279178131745E-012
  -86.504999999999995         -7.2723745428437958E-012
  -86.489999999999995         -8.9968822322705755E-012
  -86.474999999999994         -1.0699981699280325E-011
  -86.459999999999994         -1.2383750275235528E-011
  -86.444999999999993         -1.4050525500020061E-011
  -86.430000000000007         -1.5702510472448417E-011
  -86.415000000000006         -1.7341387006930553E-011
  -86.400000000000006         -1.8967940065839350E-011
  -86.385000000000005         -2.0581734233582338E-011
  -86.370000000000005         -2.2180835293483803E-011
  -86.355000000000004         -2.3761600326244192E-011
  -86.340000000000003         -2.5318559748743752E-011
  -86.325000000000003         -2.6844377415402576E-011
  -86.310000000000002         -2.8329911333502267E-011
  -86.295000000000002         -2.9764374992469200E-011
  -86.280000000000001         -3.1135594102948971E-011
  -86.265000000000001         -3.2430360480395493E-011
  -86.250000000000000         -3.3634855317599133E-011
  -86.234999999999999         -3.4735169601729510E-011
  -86.219999999999999         -3.5717838409166092E-011
  -86.204999999999998         -3.6570451528161740E-011
  -86.189999999999998         -3.7282257142612352E-011
  -86.174999999999997         -3.7844741229697831E-011
  -86.159999999999997         -3.8252210426970024E-011
  -86.144999999999996         -3.8502291632713792E-011
  -86.129999999999995         -3.8596351809028207E-011
  -86.114999999999995         -3.8539827579286978E-011
  -86.099999999999994         -3.8342440333849481E-011
  -86.084999999999994         -3.8018251741211984E-011
  -86.069999999999993         -3.7585594359068608E-011
  -86.055000000000007         -3.7066828773024696E-011
  -86.040000000000006         -3.6487965426879043E-011
  -86.025000000000006         -3.5878106041664637E-011
  -86.010000000000005         -3.5268746256811312E-011
  -85.995000000000005         -3.4692942962877282E-011
  -85.980000000000004         -3.4184349795296498E-011
  -85.965000000000003         -3.3776165891952203E-011
  -85.950000000000003         -3.3500008322917552E-011
  -85.935000000000002         -3.3384722070151085E-011
  -85.920000000000002         -3.3455210823873927E-011
  -85.905000000000001         -3.3731246962265260E-011
  -85.890000000000001         -3.4226371736778560E-011
  -85.875000000000000         -3.4946875254737719E-011
  -85.859999999999999         -3.5890877075894778E-011
  -85.844999999999999         -3.7047604567463921E-011
  -85.829999999999998         -3.8396830853715258E-011
  -85.814999999999998         -3.9908541749067439E-011
  -85.799999999999997         -4.1542828205232141E-011
  -85.784999999999997         -4.3250045905773860E-011
  -85.769999999999996         -4.4971221191403288E-011
  -85.754999999999995         -4.6638755357708561E-011
  -85.739999999999995         -4.8177371814173142E-011
  -85.724999999999994         -4.9505344268396811E-011
  -85.709999999999994         -5.0535950424368536E-011
  -85.694999999999993         -5.1179158133685121E-011
  -85.680000000000007         -5.1343505835799164E-011
  -85.665000000000006         -5.0938132184485951E-011
  -85.650000000000006         -4.9874916696612814E-011
  -85.635000000000005         -4.8070686320400569E-011
  -85.620000000000005         -4.5449442820366670E-011
  -85.605000000000004         -4.1944545059457994E-011
  -85.590000000000003         -3.7500801075562862E-011
  -85.575000000000003         -3.2076400563463281E-011
  -85.560000000000002         -2.5644660006651776E-011
  -85.545000000000002         -1.8195490253392066E-011
  -85.530000000000001         -9.7365813328531559E-012
  -85.515000000000001         -2.9423149030052831E-013
  -85.500000000000000          1.0086196634839784E-011
  -85.484999999999999          2.1340222991494961E-011
  -85.469999999999999          3.3384614517295574E-011
  -85.454999999999998          4.6118185659249633E-011
  -85.439999999999998          5.9422994302948950E-011
  -85.424999999999997          7.3165966341104394E-011
  -85.409999999999997          8.7200885401372830E-011
  -85.394999999999996          1.0137072431470884E-010
  -85.379999999999995          1.1551027495615429E-010
  -85.364999999999995          1.2944902094691457E-010
  -85.349999999999994          1.4301414219541897E-010
  -85.334999999999994          1.5603368597183476E-010
  -85.319999999999993          1.6833980043262642E-010
  -85.305000000000007          1.7977180855055508E-010
  -85.290000000000006          1.9017926122799622E-010
  -85.275000000000006          1.9942479612122810E-010
  -85.260000000000005          2.0738674666453960E-010
  -85.245000000000005          2.1396143190521855E-010
  -85.230000000000004          2.1906504388269354E-010
  -85.215000000000003          2.2263518806298066E-010
  -85.200000000000003          2.2463189641719339E-010
  -85.185000000000002          2.2503829355535743E-010
  -85.170000000000002          2.2386065223756191E-010
  -85.155000000000001          2.2112806030705201E-010
  -85.140000000000001          2.1689157414517268E-010
  -85.125000000000000          2.1122295579267814E-010
  -85.109999999999999          2.0421299373740709E-010
  -85.094999999999999          1.9596947675726284E-010
  -85.079999999999998          1.8661482081849812E-010
  -85.064999999999998          1.7628350168497064E-010
  -85.049999999999997          1.6511926548279376E-010
  -85.034999999999997          1.5327221436489680E-010
  -85.019999999999996          1.4089586442000979E-010
  -85.004999999999995          1.2814418970386043E-010
  -84.989999999999995          1.1516878423156740E-010
  -84.974999999999994          1.0211612805344217E-010
  -84.959999999999994          8.9125075375395824E-011
  -84.944999999999993          7.6324543907269060E-011
  -84.930000000000007          6.3831537278069561E-011
  -84.915000000000006          5.1749458884753352E-011
  -84.900000000000006          4.0166758807913538E-011
  -84.885000000000005          2.9155941549952047E-011
  -84.870000000000005          1.8772920717946562E-011
  -84.855000000000004          9.0567449373413211E-012
  -84.840000000000003          2.9651628374871564E-014
  -84.825000000000003         -8.3025530894786925E-012
  -84.810000000000002         -1.5949816120630622E-011
  -84.795000000000002         -2.2936890234359630E-011
  -84.780000000000001         -2.9302178738976892E-011
  -84.765000000000001         -3.5096359846109593E-011
  -84.750000000000000         -4.0380893073788116E-011
  -84.734999999999999         -4.5226405953613380E-011
  -84.719999999999999         -4.9711023492049478E-011
  -84.704999999999998         -5.3918668141417214E-011
  -84.689999999999998         -5.7937397934804125E-011
  -84.674999999999997         -6.1857775845997054E-011
  -84.659999999999997         -6.5771339763376346E-011
  -84.644999999999996         -6.9769148791642976E-011
  -84.629999999999995         -7.3940506495340230E-011
  -84.614999999999995         -7.8371781286890041E-011
  -84.599999999999994         -8.3145372531401307E-011
  -84.584999999999994         -8.8338864001613615E-011
  -84.569999999999993         -9.4024281416249522E-011
  -84.555000000000007         -1.0026748875624492E-010
  -84.540000000000006         -1.0712768866438793E-010
  -84.525000000000006         -1.1465703386726034E-010
  -84.510000000000005         -1.2290030104722405E-010
  -84.495000000000005         -1.3189457859219544E-010
  -84.480000000000004         -1.4166905148993436E-010
  -84.465000000000003         -1.5224466132224279E-010
  -84.450000000000003         -1.6363381483142092E-010
  -84.435000000000002         -1.7584005085335974E-010
  -84.420000000000002         -1.8885758235054340E-010
  -84.405000000000001         -2.0267081068947590E-010
  -84.390000000000001         -2.1725372889580541E-010
  -84.375000000000000         -2.3256932490944848E-010
  -84.359999999999999         -2.4856883218404846E-010
  -84.344999999999999         -2.6519100804200946E-010
  -84.329999999999998         -2.8236141202953036E-010
  -84.314999999999998         -2.9999169814942661E-010
  -84.299999999999997         -3.1797889321616424E-010
  -84.284999999999997         -3.3620500827780120E-010
  -84.269999999999996         -3.5453653901562632E-010
  -84.254999999999995         -3.7282449349973490E-010
  -84.239999999999995         -3.9090439218902873E-010
  -84.224999999999994         -4.0859676753157714E-010
  -84.209999999999994         -4.2570799663188552E-010
  -84.194999999999993         -4.4203141147391989E-010
  -84.180000000000007         -4.5734893650006825E-010
  -84.165000000000006         -4.7143311476816052E-010
  -84.150000000000006         -4.8404941166424464E-010
  -84.135000000000005         -4.9495929577147990E-010
  -84.120000000000005         -5.0392329198345465E-010
  -84.105000000000004         -5.1070447870671387E-010
  -84.090000000000003         -5.1507248466364786E-010
  -84.075000000000003         -5.1680737467307836E-010
  -84.060000000000002         -5.1570397952005465E-010
  -84.045000000000002         -5.1157605929219585E-010
  -84.030000000000001         -5.0426041120488208E-010
  -84.015000000000001         -4.9362097742644551E-010
  -84.000000000000000         -4.7955239779184922E-010
  -83.984999999999999         -4.6198370129424404E-010
  -83.969999999999999         -4.4088105388695453E-010
  -83.954999999999998         -4.1625025648528435E-010
  -83.939999999999998         -3.8813846581220446E-010
  -83.924999999999997         -3.5663536013252894E-010
  -83.909999999999997         -3.2187341680867121E-010
  -83.894999999999996         -2.8402760698931218E-010
  -83.879999999999995         -2.4331403558619513E-010
  -83.864999999999995         -1.9998801226162044E-010
  -83.849999999999994         -1.5434126199309617E-010
  -83.834999999999994         -1.0669835154297758E-010
  -83.819999999999993         -5.7412477549867447E-011
  -83.805000000000007         -6.8606123386494300E-012
  -83.790000000000006          4.4561861145542281E-011
  -83.775000000000006          9.6446982345010923E-011
  -83.760000000000005          1.4838034967379343E-010
  -83.745000000000005          1.9994748912122162E-010
  -83.730000000000004          2.5074023413118596E-010
  -83.715000000000003          3.0036317877346619E-010
  -83.700000000000003          3.4843986029819973E-010
  -83.685000000000002          3.9461875434021465E-010
  -83.670000000000002          4.3857870113406250E-010
  -83.655000000000001          4.8003395702878038E-010
  -83.640000000000001          5.1873849660211135E-010
  -83.625000000000000          5.5448973190763695E-010
  -83.609999999999999          5.8713123252118748E-010
  -83.594999999999999          6.1655486272016446E-010
  -83.579999999999998          6.4270172517311153E-010
  -83.564999999999998          6.6556232747316812E-010
  -83.549999999999997          6.8517597151540599E-010
  -83.534999999999997          7.0162869958423357E-010
  -83.519999999999996          7.1505101839619556E-010
  -83.504999999999995          7.2561429087514284E-010
  -83.489999999999995          7.3352646179358771E-010
  -83.474999999999994          7.3902706176909305E-010
  -83.459999999999994          7.4238193370490535E-010
  -83.444999999999993          7.4387684900756312E-010
  -83.430000000000007          7.4381129033795901E-010
  -83.415000000000006          7.4249173476204078E-010
  -83.400000000000006          7.4022493690151236E-010
  -83.385000000000005          7.3731110106223241E-010
  -83.370000000000005          7.3403721989606652E-010
  -83.355000000000004          7.3067102368540304E-010
  -83.340000000000003          7.2745492962766889E-010
  -83.325000000000003          7.2460065725366007E-010
  -83.310000000000002          7.2228473202429200E-010
  -83.295000000000002          7.2064437750540833E-010
  -83.280000000000001          7.1977440674331206E-010
  -83.265000000000001          7.1972500181871624E-010
  -83.250000000000000          7.2050021504566075E-010
  -83.234999999999999          7.2205769141575615E-010
  -83.219999999999999          7.2430894615393981E-010
  -83.204999999999998          7.2712075249725672E-010
  -83.189999999999998          7.3031752867436239E-010
  -83.174999999999997          7.3368405795193326E-010
  -83.159999999999997          7.3696948543755525E-010
  -83.144999999999996          7.3989153692721743E-010
  -83.129999999999995          7.4214145939777154E-010
  -83.114999999999995          7.4338940558860145E-010
  -83.099999999999994          7.4329009613904873E-010
  -83.084999999999994          7.4148892581504811E-010
  -83.069999999999993          7.3762784769115797E-010
  -83.055000000000007          7.3135142386604457E-010
  -83.040000000000006          7.2231293168911748E-010
  -83.025000000000006          7.1018013692025761E-010
  -83.010000000000005          6.9464101137839407E-010
  -82.995000000000005          6.7540856241166125E-010
  -82.980000000000004          6.5222599543446336E-010
  -82.965000000000003          6.2487093277496797E-010
  -82.950000000000003          5.9315941047799470E-010
  -82.935000000000002          5.5694904244063537E-010
  -82.920000000000002          5.1614174045866434E-010
  -82.905000000000001          4.7068599018373902E-010
  -82.890000000000001          4.2057848870236114E-010
  -82.875000000000000          3.6586489393641841E-010
  -82.859999999999999          3.0664024097681875E-010
  -82.844999999999999          2.4304877555003657E-010
  -82.829999999999998          1.7528302420632969E-010
  -82.814999999999998          1.0358239266317071E-010
  -82.799999999999997          2.8231163934355763E-011
  -82.784999999999997         -5.0444034366270429E-011
  -82.769999999999996         -1.3207726579089751E-010
  -82.754999999999995         -2.1626681001585268E-010
  -82.739999999999995         -3.0257915617504239E-010
  -82.724999999999994         -3.9055342293536910E-010
  -82.709999999999994         -4.7970605265845734E-010
  -82.694999999999993         -5.6953591842656692E-010
  -82.680000000000007         -6.5952954209080872E-010
  -82.665000000000006         -7.4916678416414584E-010
  -82.650000000000006         -8.3792617289191185E-010
  -82.635000000000005         -9.2529078843384127E-010
  -82.620000000000005         -1.0107538139791927E-009
  -82.605000000000004         -1.0938238093061159E-009
  -82.590000000000003         -1.1740302063856234E-009
  -82.575000000000003         -1.2509284719186553E-009
  -82.560000000000002         -1.3241042706724215E-009
  -82.545000000000002         -1.3931780173948027E-009
  -82.530000000000001         -1.4578083185057267E-009
  -82.515000000000001         -1.5176953027662421E-009
  -82.500000000000000         -1.5725828417245680E-009
  -82.484999999999999         -1.6222606591398403E-009
  -82.469999999999999         -1.6665652191605318E-009
  -82.454999999999998         -1.7053800593913593E-009
  -82.439999999999998         -1.7386357908932837E-009
  -82.424999999999997         -1.7663086548935780E-009
  -82.409999999999997         -1.7884190794958954E-009
  -82.394999999999996         -1.8050293482119173E-009
  -82.379999999999995         -1.8162404913368846E-009
  -82.364999999999995         -1.8221885111913139E-009
  -82.349999999999994         -1.8230409404296211E-009
  -82.334999999999994         -1.8189917350142082E-009
  -82.319999999999993         -1.8102572774125747E-009
  -82.305000000000007         -1.7970704924152869E-009
  -82.290000000000006         -1.7796766282884846E-009
  -82.275000000000006         -1.7583272615695478E-009
  -82.260000000000005         -1.7332756341303934E-009
  -82.245000000000005         -1.7047714351292598E-009
  -82.230000000000004         -1.6730561380740028E-009
  -82.215000000000003         -1.6383581158407878E-009
  -82.200000000000003         -1.6008890879604110E-009
  -82.185000000000002         -1.5608402348377126E-009
  -82.170000000000002         -1.5183786450378989E-009
  -82.155000000000001         -1.4736455389297021E-009
  -82.140000000000001         -1.4267538261947266E-009
  -82.125000000000000         -1.3777872176490291E-009
  -82.109999999999999         -1.3267995591093040E-009
  -82.094999999999999         -1.2738152754820931E-009
  -82.079999999999998         -1.2188301479199026E-009
  -82.064999999999998         -1.1618130901780432E-009
  -82.049999999999997         -1.1027081470160738E-009
  -82.034999999999997         -1.0414380469114803E-009
  -82.019999999999996         -9.7790708863954023E-010
  -82.004999999999995         -9.1200574869887419E-010
  -81.989999999999995         -8.4361484464778869E-010
  -81.974999999999994         -7.7261030906328187E-010
  -81.960000000000008         -6.9886840758925928E-010
  -81.944999999999993         -6.2227079045129585E-010
  -81.930000000000007         -5.4270971050485173E-010
  -81.915000000000006         -4.6009293597215617E-010
  -81.900000000000006         -3.7434869093466716E-010
  -81.885000000000005         -2.8543009622516990E-010
  -81.870000000000005         -1.9331930500854355E-010
  -81.855000000000004         -9.8030937534243634E-011
  -81.840000000000003          3.8492158679209743E-013