  -90.000000000000000          0.0000000000000000     
  -89.984999999999999          1.4604421005870449E-009
  -89.969999999999999          4.3053409726212521E-009
  -89.954999999999998          8.3806082074033839E-009
  -89.939999999999998          1.3464646286820425E-008
  -89.924999999999997          1.9283543650772117E-008
  -89.909999999999997          2.5529775626864648E-008
  -89.894999999999996          3.1883111262231978E-008
  -89.879999999999995          3.8032215599059782E-008
  -89.864999999999995          4.3695447260461151E-008
  -89.849999999999994          4.8639396510452571E-008
  -89.834999999999994          5.2693820862259599E-008
  -89.819999999999993          5.5761976369694821E-008
  -89.805000000000007          5.7825623400731274E-008
  -89.790000000000006          5.8944365832758194E-008
  -89.775000000000006          5.9249398276506327E-008
  -89.760000000000005          5.8932162261271515E-008
  -89.745000000000005          5.8228682320304870E-008
  -89.730000000000004          5.7400786346306631E-008
  -89.715000000000003          5.6715538931939591E-008
  -89.700000000000003          5.6424354966111423E-008
  -89.685000000000002          5.6743328258335168E-008
  -89.670000000000002          5.7836160749502596E-008
  -89.655000000000001          5.9800960627853783E-008
  -89.640000000000001          6.2661797528562602E-008
  -89.625000000000000          6.6365679174396064E-008
  -89.609999999999999          7.0785119987704093E-008
  -89.594999999999999          7.5726191539615684E-008
  -89.579999999999998          8.0941362057274091E-008
  -89.564999999999998          8.6146378919238487E-008
  -89.549999999999997          9.1039815686144721E-008
  -89.534999999999997          9.5324047322264960E-008
  -89.519999999999996          9.8726033570528671E-008
  -89.504999999999995          1.0101653913352493E-007
  -89.489999999999995          1.0202633404787775E-007
  -89.474999999999994          1.0165825869989931E-007
  -89.459999999999994          9.9894307936665427E-008
  -89.444999999999993          9.6797201365461660E-008
  -89.430000000000007          9.2506311943907349E-008
  -89.415000000000006          8.7228265499561530E-008
  -89.400000000000006          8.1222864878327528E-008
  -89.385000000000005          7.4785312165204232E-008
  -89.370000000000005          6.8226029270590516E-008
  -89.355000000000004          6.1849412702486006E-008
  -89.340000000000003          5.5933114140316320E-008
  -89.325000000000003          5.0709260790426924E-008
  -89.310000000000002          4.6348922921879421E-008
  -89.295000000000002          4.2950951240072754E-008
  -89.280000000000001          4.0535940826202932E-008
  -89.265000000000001          3.9045737310061668E-008
  -89.250000000000000          3.8348517250597070E-008
  -89.234999999999999          3.8249062583872728E-008
  -89.219999999999999          3.8503493726693705E-008
  -89.204999999999998          3.8837399074509449E-008
  -89.189999999999998          3.8966071258528245E-008
  -89.174999999999997          3.8615404207575921E-008
  -89.159999999999997          3.7541994402090495E-008
  -89.144999999999996          3.5550954180507688E-008
  -89.129999999999995          3.2510261149809594E-008
  -89.114999999999995          2.8360553017137136E-008
  -89.099999999999994          2.3119721248576752E-008
  -89.084999999999994          1.6881983810890233E-008
  -89.069999999999993          9.8114929514281357E-009
  -89.055000000000007          2.1309545239489580E-009
  -89.040000000000006         -5.8939222391529711E-009
  -89.025000000000006         -1.3973034285186259E-008
  -89.010000000000005         -2.1812228467865680E-008
  -88.995000000000005         -2.9133911283452107E-008
  -88.980000000000004         -3.5696487543646072E-008
  -88.965000000000003         -4.1311189136195026E-008
  -88.950000000000003         -4.5855145458517654E-008
  -88.935000000000002         -4.9279726965778536E-008
  -88.920000000000002         -5.1613611162792949E-008
  -88.905000000000001         -5.2960277940883316E-008
  -88.890000000000001         -5.3490197160499520E-008
  -88.875000000000000         -5.3428202306804451E-008
  -88.859999999999999         -5.3036949054785509E-008
  -88.844999999999999         -5.2597666666542864E-008
  -88.829999999999998         -5.2389555804666088E-008
  -88.814999999999998         -5.2669260952598052E-008
  -88.799999999999997         -5.3651930898013234E-008
  -88.784999999999997         -5.5495167572416904E-008
  -88.769999999999996         -5.8287021431624453E-008
  -88.754999999999995         -6.2038900239258510E-008
  -88.739999999999995         -6.6683874422324152E-008
  -88.724999999999994         -7.2080524660123046E-008
  -88.709999999999994         -7.8022040383984859E-008
  -88.694999999999993         -8.4249947462922137E-008
  -88.680000000000007         -9.0471537816938508E-008
  -88.665000000000006         -9.6379665137646953E-008
  -88.650000000000006         -1.0167363484470116E-007
  -88.635000000000005         -1.0607966061115803E-007
  -88.620000000000005         -1.0936945216144522E-007
  -88.605000000000004         -1.1137561273244501E-007
  -88.590000000000003         -1.1200284433243723E-007
  -88.575000000000003         -1.1123407261948159E-007
  -88.560000000000002         -1.0913112191701657E-007
  -88.545000000000002         -1.0582995457752986E-007
  -88.530000000000001         -1.0153071627883037E-007
  -88.515000000000001         -9.6483375955358497E-008
  -88.500000000000000         -9.0969955124364787E-008
  -88.484999999999999         -8.5284597162171849E-008
  -88.469999999999999         -7.9712904721418454E-008
  -88.454999999999998         -7.4512023218176182E-008
  -88.439999999999998         -6.9892806209281844E-008
  -88.424999999999997         -6.6005391374801547E-008
  -88.409999999999997         -6.2929125022037624E-008
  -88.394999999999996         -6.0667609602660377E-008
  -88.379999999999995         -5.9149151354631613E-008
  -88.364999999999995         -5.8232554778214762E-008
  -88.349999999999994         -5.7717890911135328E-008
  -88.334999999999994         -5.7361400962463449E-008
  -88.319999999999993         -5.6893494360110708E-008
  -88.305000000000007         -5.6038576445871513E-008
  -88.290000000000006         -5.4535217230977651E-008
  -88.275000000000006         -5.2155314733681735E-008
  -88.260000000000005         -4.8720838918825393E-008
  -88.245000000000005         -4.4116980291164509E-008
  -88.230000000000004         -3.8300775884181348E-008
  -88.215000000000003         -3.1304644210194965E-008
  -88.200000000000003         -2.3234512980252475E-008
  -88.185000000000002         -1.4262754532978761E-008
  -88.170000000000002         -4.6164214673183324E-009
  -88.155000000000001          5.4383959557924300E-009
  -88.140000000000001          1.5614931569984947E-008
  -88.125000000000000          2.5625544353147234E-008
  -88.109999999999999          3.5201519921201907E-008
  -88.094999999999999          4.4111484243103405E-008
  -88.079999999999998          5.2177089315819103E-008
  -88.064999999999998          5.9284893438871222E-008
  -88.049999999999997          6.5393585657602671E-008
  -88.034999999999997          7.0536010809973959E-008
  -88.019999999999996          7.4815908135406062E-008
  -88.004999999999995          7.8399573055776273E-008
  -87.989999999999995          8.1503053195319808E-008
  -87.974999999999994          8.4375770370570535E-008
  -87.959999999999994          8.7281804894701054E-008
  -87.944999999999993          9.0480114067759132E-008
  -87.930000000000007          9.4205105938272027E-008
  -87.915000000000006          9.8649024948826991E-008
  -87.900000000000006          1.0394728633400518E-007
  -87.885000000000005          1.1016795298246507E-007
  -87.870000000000005          1.1730593740821860E-007
  -87.855000000000004          1.2528253989785298E-007
  -87.840000000000003          1.3395019493600557E-007
  -87.825000000000003          1.4310212748114282E-007
  -87.810000000000002          1.5248639329001890E-007
  -87.795000000000002          1.6182301010303490E-007
  -87.780000000000001          1.7082331282836094E-007
  -87.765000000000001          1.7920987716024683E-007
  -87.750000000000000          1.8673574686545180E-007
  -87.734999999999999          1.9320158628488571E-007
  -87.719999999999999          1.9846953591695637E-007
  -87.704999999999998          2.0247277632279292E-007
  -87.689999999999998          2.0522011823231878E-007
  -87.674999999999997          2.0679534884493478E-007
  -87.659999999999997          2.0735124905968405E-007
  -87.644999999999996          2.0709896375592507E-007
  -87.629999999999995          2.0629313723929954E-007
  -87.614999999999995          2.0521406440821011E-007
  -87.599999999999994          2.0414817925029638E-007
  -87.584999999999994          2.0336801753728651E-007
  -87.569999999999993          2.0311330217737122E-007
  -87.555000000000007          2.0357430230433238E-007
  -87.540000000000006          2.0487875929120491E-007
  -87.525000000000006          2.0708316128548176E-007
  -87.510000000000005          2.1016913365201617E-007
  -87.495000000000005          2.1404500216704037E-007
  -87.480000000000004          2.1855255738501000E-007
  -87.465000000000003          2.2347843753323104E-007
  -87.450000000000003          2.2856936254811444E-007
  -87.435000000000002          2.3355008238468145E-007
  -87.420000000000002          2.3814284588752344E-007
  -87.405000000000001          2.4208696913774475E-007
  -87.390000000000001          2.4515699692528869E-007
  -87.375000000000000          2.4717854785194504E-007
  -87.359999999999999          2.4804020881674660E-007
  -87.344999999999999          2.4770116624495131E-007
  -87.329999999999998          2.4619370719847211E-007
  -87.314999999999998          2.4362051931348105E-007
  -87.299999999999997          2.4014715904741024E-007
  -87.284999999999997          2.3599008613928163E-007
  -87.269999999999996          2.3140100324781088E-007
  -87.254999999999995          2.2664897869617562E-007
  -87.239999999999995          2.2200140392669709E-007
  -87.224999999999994          2.1770516411834251E-007
  -87.209999999999994          2.1396934357653663E-007
  -87.194999999999993          2.1095083013733529E-007
  -87.180000000000007          2.0874368544809840E-007
  -87.165000000000006          2.0737310535423603E-007
  -87.150000000000006          2.0679431145254057E-007
  -87.135000000000005          2.0689661539563531E-007
  -87.120000000000005          2.0751213014591485E-007
  -87.105000000000004          2.0842857395564351E-007
  -87.090000000000003          2.0940532863278349E-007
  -87.075000000000003          2.1019148732648318E-007
  -87.060000000000002          2.1054465548786538E-007
  -87.045000000000002          2.1024901286637032E-007
  -87.030000000000001          2.0913161336011399E-007
  -87.015000000000001          2.0707544479137141E-007
  -87.000000000000000          2.0402858069701324E-007
  -86.984999999999999          2.0000851463919389E-007
  -86.969999999999999          1.9510160598201765E-007
  -86.954999999999998          1.8945749502563558E-007
  -86.939999999999998          1.8327895645597891E-007
  -86.924999999999997          1.7680791586371924E-007
  -86.909999999999997          1.7030855303801218E-007
  -86.894999999999996          1.6404882785536756E-007
  -86.879999999999995          1.5828162247544242E-007
  -86.864999999999995          1.5322686408580921E-007
  -86.849999999999994          1.4905590717262385E-007
  -86.834999999999994          1.4587936902898946E-007
  -86.819999999999993          1.4373912904375175E-007
  -86.805000000000007          1.4260520231346163E-007
  -86.790000000000006          1.4237761547519767E-007
  -86.775000000000006          1.4289325633853878E-007
  -86.760000000000005          1.4393711467164394E-007
  -86.745000000000005          1.4525724623126735E-007
  -86.730000000000004          1.4658226632491278E-007
  -86.715000000000003          1.4764020761504071E-007
  -86.700000000000003          1.4817752003182250E-007
  -86.685000000000002          1.4797664960042312E-007
  -86.670000000000002          1.4687124405554641E-007
  -86.655000000000001          1.4475759257948084E-007
  -86.640000000000001          1.4160180228373065E-007
  -86.625000000000000          1.3744208615662501E-007
  -86.609999999999999          1.3238587825981085E-007
  -86.594999999999999          1.2660227355354436E-007
  -86.579999999999998          1.2031011920043966E-007
  -86.564999999999998          1.1376257447182070E-007
  -86.549999999999997          1.0722947507701974E-007
  -86.534999999999997          1.0097842562117876E-007
  -86.519999999999996          9.5256226018136658E-008
  -86.504999999999995          9.0271733199642767E-008
  -86.489999999999995          8.6181493941239751E-008
  -86.474999999999994          8.3079051194090425E-008
  -86.459999999999994          8.0988741046894575E-008
  -86.444999999999993          7.9864300062126858E-008
  -86.430000000000007          7.9592474833134474E-008
  -86.415000000000006          8.0001257174444618E-008
  -86.400000000000006          8.0872183616520488E-008
  -86.385000000000005          8.1955846553682932E-008
  -86.370000000000005          8.2989423333401646E-008
  -86.355000000000004          8.3715050891441933E-008
  -86.340000000000003          8.3897724323378498E-008
  -86.325000000000003          8.3341383572133054E-008
  -86.310000000000002          8.1902186366278329E-008
  -86.295000000000002          7.9497930016714236E-008
  -86.280000000000001          7.6113025215818197E-008
  -86.265000000000001          7.1798645251419657E-008
  -86.250000000000000          6.6668164322436496E-008
  -86.234999999999999          6.0888069697284664E-008
  -86.219999999999999          5.4665218129912319E-008
  -86.204999999999998          4.8231154181621605E-008
  -86.189999999999998          4.1824801400025535E-008
  -86.174999999999997          3.5674677434371915E-008
  -86.159999999999997          2.9981908511444999E-008
  -86.144999999999996          2.4905324025326081E-008
  -86.129999999999995          2.0549627777199930E-008
  -86.114999999999995          1.6957519832772050E-008
  -86.099999999999994          1.4106331214236434E-008
  -86.084999999999994          1.1909397024112423E-008
  -86.069999999999993          1.0222064084075555E-008
  -86.055000000000007          8.8518978813567628E-009
  -86.040000000000006          7.5723596282273320E-009
  -86.025000000000006          6.1389684447021864E-009
  -86.010000000000005          4.3067940325158816E-009
  -85.995000000000005          1.8480220687067117E-009
  -85.980000000000004         -1.4316575702721934E-009
  -85.965000000000003         -5.6790145919194401E-009
  -85.950000000000003         -1.0982597054010057E-008
  -85.935000000000002         -1.7366172500032917E-008
  -85.920000000000002         -2.4786746877225596E-008
  -85.905000000000001         -3.3137336430399955E-008
  -85.890000000000001         -4.2254267640373655E-008
  -85.875000000000000         -5.1928523703281826E-008
  -85.859999999999999         -6.1920296445805434E-008
  -85.844999999999999         -7.1975769344589935E-008
  -85.829999999999998         -8.1844881094639277E-008
  -85.814999999999998         -9.1298872462175495E-008
  -85.799999999999997         -1.0014635876132161E-007
  -85.784999999999997         -1.0824678042808955E-007
  -85.769999999999996         -1.1552030798611668E-007
  -85.754999999999995         -1.2195343401799619E-007
  -85.739999999999995         -1.2760001766309870E-007
  -85.724999999999994         -1.3257746900308121E-007
  -85.709999999999994         -1.3705862045299000E-007
  -85.694999999999993         -1.4125961911304330E-007
  -85.680000000000007         -1.4542479220835958E-007
  -85.665000000000006         -1.4980963669586345E-007
  -85.650000000000006         -1.5466292779819923E-007
  -85.635000000000005         -1.6020936755012372E-007
  -85.620000000000005         -1.6663391022575524E-007
  -85.605000000000004         -1.7406887309334707E-007
  -85.590000000000003         -1.8258477041399601E-007
  -85.575000000000003         -1.9218532543163747E-007
  -85.560000000000002         -2.0280728563193406E-007
  -85.545000000000002         -2.1432474284210912E-007
  -85.530000000000001         -2.2655783027403231E-007
  -85.515000000000001         -2.3928510017867666E-007
  -85.500000000000000         -2.5225867261724488E-007
  -85.484999999999999         -2.6522110374571639E-007
  -85.469999999999999         -2.7792287937700166E-007
  -85.454999999999998         -2.9013909852437791E-007
  -85.439999999999998         -3.0168445164235891E-007
  -85.424999999999997         -3.1242507247952744E-007
  -85.409999999999997         -3.2228680879597960E-007
  -85.394999999999996         -3.3125934351119213E-007
  -85.379999999999995         -3.3939559784812445E-007
  -85.364999999999995         -3.4680670069064945E-007
  -85.349999999999994         -3.5365295047995460E-007
  -85.334999999999994         -3.6013136650581146E-007
  -85.319999999999993         -3.6646073908741528E-007
  -85.305000000000007         -3.7286517340362479E-007
  -85.290000000000006         -3.7955757647978317E-007
  -85.275000000000006         -3.8672393998240295E-007
  -85.260000000000005         -3.9450981148547726E-007
  -85.245000000000005         -4.0300955106431502E-007
  -85.230000000000004         -4.1225968061553431E-007
  -85.215000000000003         -4.2223626905979472E-007
  -85.200000000000003         -4.3285672290949151E-007
  -85.185000000000002         -4.4398584009286424E-007
  -85.170000000000002         -4.5544572913058801E-007
  -85.155000000000001         -4.6702879785698315E-007
  -85.140000000000001         -4.7851273166088504E-007
  -85.125000000000000         -4.8967683596856659E-007
  -85.109999999999999         -5.0031786713589099E-007
  -85.094999999999999         -5.1026484015892493E-007
  -85.079999999999998         -5.1939156264779740E-007
  -85.064999999999998         -5.2762590030397405E-007
  -85.049999999999997         -5.3495506335821119E-007
  -85.034999999999997         -5.4142668659551418E-007
  -85.019999999999996         -5.4714581665393780E-007
  -85.004999999999995         -5.5226740869329660E-007
  -84.989999999999995         -5.5698541245874367E-007
  -84.974999999999994         -5.6151924354708171E-007
  -84.959999999999994         -5.6609820830999524E-007
  -84.944999999999993         -5.7094513294941862E-007
  -84.930000000000007         -5.7626056104709278E-007
  -84.915000000000006         -5.8220842902301229E-007
  -84.900000000000006         -5.8890447007797775E-007
  -84.885000000000005         -5.9640768768076668E-007
  -84.870000000000005         -6.0471603546830011E-007
  -84.855000000000004         -6.1376630355880479E-007
  -84.840000000000003         -6.2343826812139014E-007
  -84.825000000000003         -6.3356293367178296E-007
  -84.810000000000002         -6.4393412912977510E-007
  -84.795000000000002         -6.5432260498710093E-007
  -84.780000000000001         -6.6449189262129948E-007
  -84.765000000000001         -6.7421456151350867E-007
  -84.750000000000000         -6.8328785118865198E-007
  -84.734999999999999         -6.9154759785305941E-007
  -84.719999999999999         -6.9887948939140188E-007
  -84.704999999999998         -7.0522673922823742E-007
  -84.689999999999998         -7.1059400852391263E-007
  -84.674999999999997         -7.1504666721011745E-007
  -84.659999999999997         -7.1870630335979513E-007
  -84.644999999999996         -7.2174213983089430E-007
  -84.629999999999995         -7.2435938136550249E-007
  -84.614999999999995         -7.2678494689171202E-007
  -84.599999999999994         -7.2925212180052768E-007
  -84.584999999999994         -7.3198469863200444E-007
  -84.569999999999993         -7.3518191356924945E-007
  -84.555000000000007         -7.3900542929550284E-007
  -84.540000000000006         -7.4356881896164850E-007
  -84.525000000000006         -7.4893074497595080E-007
  -84.510000000000005         -7.5509200314627378E-007
  -84.495000000000005         -7.6199643217478297E-007
  -84.480000000000004         -7.6953625693931826E-007
  -84.465000000000003         -7.7756061500622309E-007
  -84.450000000000003         -7.8588726637462969E-007
  -84.435000000000002         -7.9431623589698575E-007
  -84.420000000000002         -8.0264481994163361E-007
  -84.405000000000001         -8.1068242252513301E-007
  -84.390000000000001         -8.1826442510646302E-007
  -84.375000000000000         -8.2526412370498292E-007
  -84.359999999999999         -8.3160182384744985E-007
  -84.344999999999999         -8.3725046806648606E-007
  -84.329999999999998         -8.4223739804656361E-007
  -84.314999999999998         -8.4664230826092535E-007
  -84.299999999999997         -8.5059133425602340E-007
  -84.284999999999997         -8.5424784401766374E-007
  -84.269999999999996         -8.5780067138330196E-007
  -84.254999999999995         -8.6145053046493558E-007
  -84.239999999999995         -8.6539552057729452E-007
  -84.224999999999994         -8.6981702906996361E-007
  -84.209999999999994         -8.7486688471472007E-007
  -84.194999999999993         -8.8065672798620653E-007
  -84.180000000000007         -8.8724993929645279E-007
  -84.165000000000006         -8.9465748942529899E-007
  -84.150000000000006         -9.0283748477304471E-007
  -84.135000000000005         -9.1169806637481088E-007
  -84.120000000000005         -9.2110445848447853E-007
  -84.105000000000004         -9.3088874564273283E-007
  -84.090000000000003         -9.4086198032528046E-007
  -84.075000000000003         -9.5082788220679504E-007
  -84.060000000000002         -9.6059682164195692E-007
  -84.045000000000002         -9.6999974630307406E-007
  -84.030000000000001         -9.7889983408094849E-007
  -84.015000000000001         -9.8720283858710900E-007
  -84.000000000000000         -9.9486317139962921E-007
  -83.984999999999999         -1.0018881084761233E-006
  -83.969999999999999         -1.0083364259116934E-006
  -83.954999999999998         -1.0143146482732845E-006
  -83.939999999999998         -1.0199697726420709E-006
  -83.924999999999997         -1.0254784683638718E-006
  -83.909999999999997         -1.0310351399311912E-006
  -83.894999999999996         -1.0368378298153402E-006
  -83.879999999999995         -1.0430744623590726E-006
  -83.864999999999995         -1.0499097697902471E-006
  -83.849999999999994         -1.0574738098512171E-006
  -83.834999999999994         -1.0658525297913002E-006
  -83.819999999999993         -1.0750823093985673E-006
  -83.805000000000007         -1.0851470051420620E-006
  -83.790000000000006         -1.0959789733533398E-006
  -83.775000000000006         -1.1074640724473284E-006
  -83.760000000000005         -1.1194492799404543E-006
  -83.745000000000005         -1.1317532653265516E-006
  -83.730000000000004         -1.1441787819421734E-006
  -83.715000000000003         -1.1565257409529295E-006
  -83.700000000000003         -1.1686048537740135E-006
  -83.685000000000002         -1.1802503649960272E-006
  -83.670000000000002         -1.1913302842003759E-006
  -83.655000000000001         -1.2017553672194481E-006
  -83.640000000000001         -1.2114837772969622E-006
  -83.625000000000000         -1.2205236998852342E-006
  -83.609999999999999         -1.2289312962820986E-006
  -83.594999999999999         -1.2368061561573995E-006
  -83.579999999999998         -1.2442831121006748E-006
  -83.564999999999998         -1.2515224625531118E-006
  -83.549999999999997         -1.2586979210027494E-006
  -83.534999999999997         -1.2659844514928409E-006
  -83.519999999999996         -1.2735451946355170E-006
  -83.504999999999995         -1.2815206673622015E-006
  -83.489999999999995         -1.2900186447950546E-006
  -83.474999999999994         -1.2991073390367092E-006
  -83.459999999999994         -1.3088111927572754E-006
  -83.444999999999993         -1.3191096286391257E-006
  -83.430000000000007         -1.3299394368004869E-006
  -83.415000000000006         -1.3412001180768129E-006
  -83.400000000000006         -1.3527619557862636E-006
  -83.385000000000005         -1.3644756791109103E-006
  -83.370000000000005         -1.3761836044068332E-006
  -83.355000000000004         -1.3877319133825949E-006
  -83.340000000000003         -1.3989816807224997E-006
  -83.325000000000003         -1.4098189922151505E-006
  -83.310000000000002         -1.4201631302057649E-006
  -83.295000000000002         -1.4299728263722500E-006
  -83.280000000000001         -1.4392483080882812E-006
  -83.265000000000001         -1.4480317531706532E-006
  -83.250000000000000         -1.4564039929609862E-006
  -83.234999999999999         -1.4644782595496508E-006
  -83.219999999999999         -1.4723916592629394E-006
  -83.204999999999998         -1.4802957366555347E-006
  -83.189999999999998         -1.4883446510793874E-006
  -83.174999999999997         -1.4966846038078074E-006
  -83.159999999999997         -1.5054429240990430E-006
  -83.144999999999996         -1.5147189742492628E-006
  -83.129999999999995         -1.5245766462612664E-006
  -83.114999999999995         -1.5350402691183263E-006
  -83.099999999999994         -1.5460923350474332E-006
  -83.084999999999994         -1.5576749774481868E-006
  -83.069999999999993         -1.5696937225584406E-006
  -83.055000000000007         -1.5820244243514026E-006
  -83.040000000000006         -1.5945217910484644E-006
  -83.025000000000006         -1.6070296169345966E-006
  -83.010000000000005         -1.6193914689210942E-006
  -82.995000000000005         -1.6314618278556736E-006
  -82.980000000000004         -1.6431156382168410E-006
  -82.965000000000003         -1.6542574030609103E-006
  -82.950000000000003         -1.6648270957375644E-006
  -82.935000000000002         -1.6748044799896888E-006
  -82.920000000000002         -1.6842097920743981E-006
  -82.905000000000001         -1.6931023765209829E-006
  -82.890000000000001         -1.7015761386574013E-006
  -82.875000000000000         -1.7097529507736908E-006
  -82.859999999999999         -1.7177737845486263E-006
  -82.844999999999999         -1.7257895024158643E-006
  -82.829999999999998         -1.7339498299406841E-006
  -82.814999999999998         -1.7423939198124572E-006
  -82.799999999999997         -1.7512405747766024E-006
  -82.784999999999997         -1.7605814264243236E-006
  -82.769999999999996         -1.7704746824165341E-006
  -82.754999999999995         -1.7809423979997518E-006
  -82.739999999999995         -1.7919699075719109E-006
  -82.724999999999994         -1.8035078710454400E-006
  -82.709999999999994         -1.8154768213207717E-006
  -82.694999999999993         -1.8277738718097680E-006
  -82.680000000000007         -1.8402804471406853E-006
  -82.665000000000006         -1.8528718328525429E-006
  -82.650000000000006         -1.8654262703421409E-006
  -82.635000000000005         -1.8778335970637272E-006
  -82.620000000000005         -1.8900036593549885E-006
  -82.605000000000004         -1.9018721104657743E-006
  -82.590000000000003         -1.9134049580316059E-006
  -82.575000000000003         -1.9246006104367552E-006
  -82.560000000000002         -1.9354893083800562E-006
  -82.545000000000002         -1.9461299416434485E-006
  -82.530000000000001         -1.9566061837394955E-006
  -82.515000000000001         -1.9670192159537692E-006
  -82.500000000000000         -1.9774797692662105E-006
  -82.484999999999999         -1.9881003936461639E-006
  -82.469999999999999         -1.9989870452263858E-006
  -82.454999999999998         -2.0102306734770536E-006
  -82.439999999999998         -2.0219010821165284E-006
  -82.424999999999997         -2.0340421542641707E-006
  -82.409999999999997         -2.0466688965825597E-006
  -82.394999999999996         -2.0597663024091162E-006
  -82.379999999999995         -2.0732918528665323E-006
  -82.364999999999995         -2.0871775632258505E-006
  -82.349999999999994         -2.1013368041167269E-006
  -82.334999999999994         -2.1156699858693173E-006
  -82.319999999999993         -2.1300727439665934E-006
  -82.305000000000007         -2.1444432150019566E-006
  -82.290000000000006         -2.1586906768789049E-006
  -82.275000000000006         -2.1727412331529194E-006
  -82.260000000000005         -2.1865441794943763E-006
  -82.245000000000005         -2.2000745047989767E-006
  -82.230000000000004         -2.2133356196718523E-006
  -82.215000000000003         -2.2263591290538898E-006
  -82.200000000000003         -2.2392014216165990E-006
  -82.185000000000002         -2.2519404865306569E-006
  -82.170000000000002         -2.2646695470029954E-006
  -82.155000000000001         -2.2774906938138884E-006
  -82.140000000000001         -2.2905069272383116E-006
  -82.125000000000000         -2.3038157905830303E-006
  -82.109999999999999         -2.3175009573606076E-006
  -82.094999999999999         -2.3316276838158956E-006
  -82.079999999999998         -2.3462375793315005E-006
  -82.064999999999998         -2.3613463326910278E-006
  -82.049999999999997         -2.3769430299580563E-006
  -82.034999999999997         -2.3929903818498133E-006
  -82.019999999999996         -2.4094288164633326E-006
  -82.004999999999995         -2.4261801172542619E-006
  -81.989999999999995         -2.4431544716208009E-006
  -81.974999999999994         -2.4602552457508864E-006
  -81.960000000000008         -2.4773873974481830E-006
  -81.944999999999993         -2.4944633878476452E-006
  -81.930000000000007         -2.5114093205047539E-006
  -81.915000000000006         -2.5281701709900517E-006
  -81.900000000000006         -2.5447125153732486E-006
  -81.885000000000005         -2.5610265765863005E-006
  -81.870000000000005         -2.5771259970497340E-006
  -81.855000000000004         -2.5930460196832428E-006
  -81.840000000000003         -2.6088400773005560E-006