  -90.000000000000000          0.0000000000000000     
  -89.984999999999999          0.0000000000000000     
  -89.969999999999999          0.0000000000000000     
  -89.954999999999998          0.0000000000000000     
  -89.939999999999998          0.0000000000000000     
  -89.924999999999997          0.0000000000000000     
  -89.909999999999997          0.0000000000000000     
  -89.894999999999996          4.7690243096758710E-031
  -89.879999999999995          7.1260521370576825E-030
  -89.864999999999995          5.6753628601881181E-029
  -89.849999999999994          3.1995276758285850E-028
  -89.834999999999994          1.4313815643617150E-027
  -89.819999999999993          5.4034298816876499E-027
  -89.805000000000007          1.7878549422190617E-026
  -89.790000000000006          5.3194862991315879E-026
  -89.775000000000006          1.4495341320149051E-025
  -89.760000000000005          3.6671352888272620E-025
  -89.745000000000005          8.7039155332025328E-025
  -89.730000000000004          1.9542384151863182E-024
  -89.715000000000003          4.1782964478117155E-024
  -89.700000000000003          8.5533845036225804E-024
  -89.685000000000002          1.6840272860799778E-023
  -89.670000000000002          3.2009100924730034E-023
  -89.655000000000001          5.8925360021563908E-023
  -89.640000000000001          1.0534774801191791E-022
  -89.625000000000000          1.8334462821076672E-022
  -89.609999999999999          3.1125851234477517E-022
  -89.594999999999999          5.1637067807339738E-022
  -89.579999999999998          8.3843888198265642E-022
  -89.564999999999998          1.3342963492428232E-021
  -89.549999999999997          2.0837073429574653E-021
  -89.534999999999997          3.1966691636247607E-021
  -89.519999999999996          4.8223252423809870E-021
  -89.504999999999995          7.1596076697837456E-021
  -89.489999999999995          1.0469647631303546E-020
  -89.474999999999994          1.5089879483002687E-020
  -89.459999999999994          2.1449615617351159E-020
  -89.444999999999993          3.0086642985956338E-020
  -89.430000000000007          4.1664179494326756E-020
  -89.415000000000006          5.6987186585163016E-020
  -89.400000000000006          7.7016712420932489E-020
  -89.385000000000005          1.0288049821340332E-019
  -89.370000000000005          1.3587775389921221E-019
  -89.355000000000004          1.7747536151009979E-019
  -89.340000000000003          2.2929257879392688E-019
  -89.325000000000003          2.9307060801542055E-019
  -89.310000000000002          3.7062346918260665E-019
  -89.295000000000002          4.6376547957154367E-019
  -89.280000000000001          5.7421192742933104E-019
  -89.265000000000001          7.0344788629883701E-019
  -89.250000000000000          8.5256197756496963E-019
  -89.234999999999999          1.0220412038133695E-018
  -89.219999999999999          1.2115252244896932E-018
  -89.204999999999998          1.4195175147694675E-018
  -89.189999999999998          1.6430558374815634E-018
  -89.174999999999997          1.8773432688562093E-018
  -89.159999999999997          2.1153446377836418E-018
  -89.144999999999996          2.3473580462568028E-018
  -89.129999999999995          2.5605706733823993E-018
  -89.114999999999995          2.7386157167653038E-018
  -89.099999999999994          2.8611468080833963E-018
  -89.084999999999994          2.9034544080784929E-018
  -89.069999999999993          2.8361485827914313E-018
  -89.055000000000007          2.6249381463385194E-018
  -89.040000000000006          2.2305386370683890E-018
  -89.025000000000006          1.6087430415043684E-018
  -89.010000000000005          7.1069109333265759E-019
  -88.995000000000005         -5.1662692190583947E-019
  -88.980000000000004         -2.1295994412797681E-018
  -88.965000000000003         -4.1869239765377154E-018
  -88.950000000000003         -6.7482147106433421E-018
  -88.935000000000002         -9.8722666075611517E-018
  -88.920000000000002         -1.3614971847691046E-017
  -88.905000000000001         -1.8026889364433491E-017
  -88.890000000000001         -2.3150479165811447E-017
  -88.875000000000000         -2.9017049210829432E-017
  -88.859999999999999         -3.5643440896759027E-017
  -88.844999999999999         -4.3028545801579411E-017
  -88.829999999999998         -5.1149709102673980E-017
  -88.814999999999998         -5.9959166082751474E-017
  -88.799999999999997         -6.9380587823607948E-017
  -88.784999999999997         -7.9305901523852126E-017
  -88.769999999999996         -8.9592554185439067E-017
  -88.754999999999995         -1.0006129907835098E-016
  -88.739999999999995         -1.1049479945972324E-016
  -88.724999999999994         -1.2063707932591762E-016
  -88.709999999999994         -1.3019408589533889E-016
  -88.694999999999993         -1.3883538367432925E-016
  -88.680000000000007         -1.4619731759583080E-016
  -88.665000000000006         -1.5188740700279937E-016
  -88.650000000000006         -1.5549040722773335E-016
  -88.635000000000005         -1.5657566819140292E-016
  -88.620000000000005         -1.5470608118835547E-016
  -88.605000000000004         -1.4944829622184181E-016
  -88.590000000000003         -1.4038410400904494E-016
  -88.575000000000003         -1.2712281060304380E-016
  -88.560000000000002         -1.0931432669882636E-016
  -88.545000000000002         -8.6662521637098633E-017
  -88.530000000000001         -5.8938564173203947E-017
  -88.515000000000001         -2.5993773555119571E-017
  -88.500000000000000          1.2228523669642953E-017
  -88.484999999999999          5.5682582758848217E-017
  -88.469999999999999          1.0421178037223176E-016
  -88.454999999999998          1.5754260924025291E-016
  -88.439999999999998          2.1528154976701815E-016
  -88.424999999999997          2.7691518748992807E-016
  -88.409999999999997          3.4181397840582571E-016
  -88.394999999999996          4.0923965389184013E-016
  -88.379999999999995          4.7835666888506418E-016
  -88.364999999999995          5.4824742200582544E-016
  -88.349999999999994          6.1793091675230540E-016
  -88.334999999999994          6.8638504905496416E-016
  -88.319999999999993          7.5257119770179032E-016
  -88.305000000000007          8.1546132939261319E-016
  -88.290000000000006          8.7406589788680293E-016
  -88.275000000000006          9.2746243136524039E-016
  -88.260000000000005          9.7482279630330690E-016
  -88.245000000000005          1.0154391907944531E-015
  -88.230000000000004          1.0487461144672683E-015
  -88.215000000000003          1.0743386855729649E-015
  -88.200000000000003          1.0919851347213506E-015
  -88.185000000000002          1.1016328399905771E-015
  -88.170000000000002          1.1034067387403644E-015
  -88.155000000000001          1.0975999043704625E-015
  -88.140000000000001          1.0846553351122855E-015
  -88.125000000000000          1.0651394842493096E-015
  -88.109999999999999          1.0397065788541704E-015
  -88.094999999999999          1.0090563740204183E-015
  -88.079999999999998          9.7388386028127551E-016
  -88.064999999999998          9.3482452410541955E-016
  -88.049999999999997          8.9239526734891236E-016
  -88.034999999999997          8.4693421497638601E-016
  -88.019999999999996          7.9854163451297173E-016
  -88.004999999999995          7.4702424362801793E-016
  -87.989999999999995          6.9184608222414945E-016
  -87.974999999999994          6.3208907246566103E-016
  -87.959999999999994          5.6642580784508679E-016
  -87.944999999999993          4.9310758884282021E-016
  -87.930000000000007          4.0997032568796537E-016
  -87.915000000000006          3.1445976405829732E-016
  -87.900000000000006          2.0367860128795313E-016
  -87.885000000000005          7.4455426908404479E-017
  -87.870000000000005         -7.6563612504781627E-017
  -87.855000000000004         -2.5280161531947623E-016
  -87.840000000000003         -4.5761759656713467E-016
  -87.825000000000003         -6.9415551755483830E-016
  -87.810000000000002         -9.6517943207793510E-016
  -87.795000000000002         -1.2728993020353708E-015
  -87.780000000000001         -1.6187922999475975E-015
  -87.765000000000001         -2.0034268908013415E-015
  -87.750000000000000         -2.4262951724656054E-015
  -87.734999999999999         -2.8856616803105833E-015
  -87.719999999999999         -3.3784355911117446E-015
  -87.704999999999998         -3.9000755377223851E-015
  -87.689999999999998         -4.4445292579761361E-015
  -87.674999999999997         -5.0042240655663074E-015
  -87.659999999999997         -5.5701026371879087E-015
  -87.644999999999996         -6.1317163979200846E-015
  -87.629999999999995         -6.6773788341895676E-015
  -87.614999999999995         -7.1943751344251232E-015
  -87.599999999999994         -7.6692370512489345E-015
  -87.584999999999994         -8.0880660445459794E-015
  -87.569999999999993         -8.4369157168397158E-015
  -87.555000000000007         -8.7022140592162879E-015
  -87.540000000000006         -8.8712216961489912E-015
  -87.525000000000006         -8.9325087650475761E-015
  -87.510000000000005         -8.8764461953676557E-015
  -87.495000000000005         -8.6956859762917990E-015
  -87.480000000000004         -8.3856160134222063E-015
  -87.465000000000003         -7.9447726338260222E-015
  -87.450000000000003         -7.3751946458072877E-015
  -87.435000000000002         -6.6826943894500619E-015
  -87.420000000000002         -5.8770339194714506E-015
  -87.405000000000001         -4.9719864151102824E-015
  -87.390000000000001         -3.9852739232054853E-015
  -87.375000000000000         -2.9383651290799300E-015
  -87.359999999999999         -1.8561299788561868E-015
  -87.344999999999999         -7.6634591218783577E-016
  -87.329999999999998          3.0094103881077988E-016
  -87.314999999999998          1.3141953345875701E-015
  -87.299999999999997          2.2412976710711090E-015
  -87.284999999999997          3.0505618427238137E-015
  -87.269999999999996          3.7118385588211147E-015
  -87.254999999999995          4.1976797167072363E-015
  -87.239999999999995          4.4845299653937468E-015
  -87.224999999999994          4.5539104341033466E-015
  -87.209999999999994          4.3935548152103723E-015
  -87.194999999999993          3.9984575675130248E-015
  -87.180000000000007          3.3717899823658241E-015
  -87.165000000000006          2.5256451491567199E-015
  -87.150000000000006          1.4815699978770855E-015
  -87.135000000000005          2.7084889634037038E-016
  -87.120000000000005         -1.0654935440212619E-015
  -87.105000000000004         -2.4769958118311692E-015
  -87.090000000000003         -3.9043860883909622E-015
  -87.075000000000003         -5.2805435771360789E-015
  -87.060000000000002         -6.5317916582484457E-015
  -87.045000000000002         -7.5795125452121810E-015
  -87.030000000000001         -8.3420632733402847E-015
  -87.015000000000001         -8.7369551155479230E-015
  -87.000000000000000         -8.6832566148237894E-015
  -86.984999999999999         -8.1041613646097056E-015
  -86.969999999999999         -6.9296629388480510E-015
  -86.954999999999998         -5.0992531154352410E-015
  -86.939999999999998         -2.5645756304454748E-015
  -86.924999999999997          7.0805506352148535E-016
  -86.909999999999997          4.7353550558005848E-015
  -86.894999999999996          9.5150726151806662E-015
  -86.879999999999995          1.5024382427194713E-014
  -86.864999999999995          2.1218736064531306E-014
  -86.849999999999994          2.8031247570510509E-014
  -86.834999999999994          3.5372658307216559E-014
  -86.819999999999993          4.3131937501857467E-014
  -86.805000000000007          5.1177534161461063E-014
  -86.790000000000006          5.9359289673269894E-014
  -86.775000000000006          6.7510985679846564E-014
  -86.760000000000005          7.5453525534823623E-014
  -86.745000000000005          8.2998671412266856E-014
  -86.730000000000004          8.9953252366357234E-014
  -86.715000000000003          9.6123792519414719E-014
  -86.700000000000003          1.0132138319541087E-013
  -86.685000000000002          1.0536673801259805E-013
  -86.670000000000002          1.0809524797613865E-013
  -86.655000000000001          1.0936190104546273E-013
  -86.640000000000001          1.0904593742734614E-013
  -86.625000000000000          1.0705503730680174E-013
  -86.609999999999999          1.0332892581930292E-013
  -86.594999999999999          9.7842307172912868E-014
  -86.579999999999998          9.0606890751094432E-014
  -86.564999999999998          8.1672502419936899E-014
  -86.549999999999997          7.1127213277163981E-014
  -86.534999999999997          5.9096323212597113E-014
  -86.519999999999996          4.5740311088423094E-014
  -86.504999999999995          3.1251714269816405E-014
  -86.489999999999995          1.5850957834706927E-014
  -86.474999999999994         -2.1874075291426591E-016
  -86.459999999999994         -1.6697277580219640E-014
  -86.444999999999993         -3.3314246272644205E-014
  -86.430000000000007         -4.9795992931303198E-014
  -86.415000000000006         -6.5872979813919041E-014
  -86.400000000000006         -8.1287163415308394E-014
  -86.385000000000005         -9.5799256927871917E-014
  -86.370000000000005         -1.0919550311704052E-013
  -86.355000000000004         -1.2129385766179029E-013
  -86.340000000000003         -1.3194924753517911E-013
  -86.325000000000003         -1.4105772485391993E-013
  -86.310000000000002         -1.4855938744798292E-013
  -86.295000000000002         -1.5443986963858264E-013
  -86.280000000000001         -1.5873026092301512E-013
  -86.265000000000001         -1.6150547967139911E-013
  -86.250000000000000         -1.6288108828279441E-013
  -86.234999999999999         -1.6300849559058861E-013
  -86.219999999999999         -1.6206874980505964E-013
  -86.204999999999998         -1.6026509817596707E-013
  -86.189999999999998         -1.5781446245297093E-013
  -86.174999999999997         -1.5493811474694835E-013
  -86.159999999999997         -1.5185191971044121E-013
  -86.144999999999996         -1.4875635987766922E-013
  -86.129999999999995         -1.4582687271266770E-013
  -86.114999999999995         -1.4320479752114729E-013
  -86.099999999999994         -1.4098921682914600E-013
  -86.084999999999994         -1.3923030209219561E-013
  -86.069999999999993         -1.3792423149763811E-013
  -86.055000000000007         -1.3701023551370567E-013
  -86.040000000000006         -1.3636978373789133E-013
  -86.025000000000006         -1.3582829251537060E-013
  -86.010000000000005         -1.3515932622241988E-013
  -85.995000000000005         -1.3409137352999451E-013
  -85.980000000000004         -1.3231713088483060E-013
  -85.965000000000003         -1.2950506281510926E-013
  -85.950000000000003         -1.2531302222024837E-013
  -85.935000000000002         -1.1940364604175191E-013
  -85.920000000000002         -1.1146085546502246E-013
  -85.905000000000001         -1.0120721670664815E-013
  -85.890000000000001         -8.8421383116852464E-014
  -85.875000000000000         -7.2955001957121512E-014
  -85.859999999999999         -5.4748530199395101E-014
  -85.844999999999999         -3.3845105537610998E-014
  -85.829999999999998         -1.0401947451174967E-014
  -85.814999999999998          1.5301429963582650E-014
  -85.799999999999997          4.2858718554391120E-014
  -85.784999999999997          7.1736555226891568E-014
  -85.769999999999996          1.0127883503640439E-013
  -85.754999999999995          1.3071595401144970E-013
  -85.739999999999995          1.5917890378198962E-013
  -85.724999999999994          1.8571846534601311E-013
  -85.709999999999994          2.0932894632084975E-013
  -85.694999999999993          2.2897639730470876E-013
  -85.680000000000007          2.4363039255285990E-013
  -85.665000000000006          2.5229904970780481E-013
  -85.650000000000006          2.5406613661863031E-013
  -85.635000000000005          2.4812915394231694E-013
  -85.620000000000005          2.3383763458548201E-013
  -85.605000000000004          2.1073000657824414E-013
  -85.590000000000003          1.7856809780836258E-013
  -85.575000000000003          1.3736771052250130E-013
  -85.560000000000002          8.7424208497499656E-014
  -85.545000000000002          2.9331778569592973E-014
  -85.530000000000001         -3.6004714292457718E-014
  -85.515000000000001         -1.0736614912019646E-013
  -85.500000000000000         -1.8322471903413351E-013
  -85.484999999999999         -2.6175909313350121E-013
  -85.469999999999999         -3.4087961403236888E-013
  -85.454999999999998         -4.1826318884080615E-013
  -85.439999999999998         -4.9139810059592448E-013
  -85.424999999999997         -5.5763770337446950E-013
  -85.409999999999997         -6.1426216760654406E-013
  -85.394999999999996         -6.5854732691356110E-013
  -85.379999999999995         -6.8783900016716748E-013
  -85.364999999999995         -6.9963062036479395E-013
  -85.349999999999994         -6.9164303190955012E-013
  -85.334999999999994         -6.6190347473848998E-013
  -85.319999999999993         -6.0882223741620667E-013
  -85.305000000000007         -5.3126421447821648E-013
  -85.290000000000006         -4.2861300988440709E-013
  -85.275000000000006         -3.0082549949336790E-013
  -85.260000000000005         -1.4847505007149070E-013
  -85.245000000000005          2.7219122545078453E-014
  -85.230000000000004          2.2437756405473130E-013
  -85.215000000000003          4.4046258068815292E-013
  -85.200000000000003          6.7229761254589127E-013
  -85.185000000000002          9.1610421505683437E-013
  -85.170000000000002          1.1675568281285797E-012
  -85.155000000000001          1.4218546045413616E-012
  -85.140000000000001          1.6738092032189678E-012
  -85.125000000000000          1.9179477884351259E-012
  -85.109999999999999          2.1486276299831353E-012
  -85.094999999999999          2.3601617622076576E-012
  -85.079999999999998          2.5469513650899778E-012
  -85.064999999999998          2.7036224821419541E-012
  -85.049999999999997          2.8251632804010551E-012
  -85.034999999999997          2.9070587083401822E-012
  -85.019999999999996          2.9454182148835883E-012
  -85.004999999999995          2.9370941442841136E-012
  -84.989999999999995          2.8797853858508748E-012
  -84.974999999999994          2.7721249774848022E-012
  -84.959999999999994          2.6137475430537682E-012
  -84.944999999999993          2.4053348288838317E-012
  -84.930000000000007          2.1486369541218187E-012
  -84.915000000000006          1.8464680739266326E-012
  -84.900000000000006          1.5026761302286418E-012
  -84.885000000000005          1.1220858226954067E-012
  -84.870000000000005          7.1041669725754875E-013
  -84.855000000000004          2.7417727376660705E-013
  -84.840000000000003         -1.7946309314922221E-013
  -84.825000000000003         -6.4282108282187611E-013
  -84.810000000000002         -1.1078619575541349E-012
  -84.795000000000002         -1.5663736583834686E-012
  -84.780000000000001         -2.0101489917045967E-012
  -84.765000000000001         -2.4311698487711197E-012
  -84.750000000000000         -2.8217890263998457E-012
  -84.734999999999999         -3.1749060845631671E-012
  -84.719999999999999         -3.4841307356564544E-012
  -84.704999999999998         -3.7439300791530794E-012
  -84.689999999999998         -3.9497558869394656E-012
  -84.674999999999997         -4.0981484698832116E-012
  -84.659999999999997         -4.1868106204212552E-012
  -84.644999999999996         -4.2146568353385039E-012
  -84.629999999999995         -4.1818284945982498E-012
  -84.614999999999995         -4.0896791161926238E-012
  -84.599999999999994         -3.9407279522896133E-012
  -84.584999999999994         -3.7385858298044639E-012
  -84.569999999999993         -3.4878517175124246E-012
  -84.555000000000007         -3.1939850070328291E-012
  -84.540000000000006         -2.8631582781740716E-012
  -84.525000000000006         -2.5020935844055625E-012
  -84.510000000000005         -2.1178859447440468E-012
  -84.495000000000005         -1.7178230409323203E-012
  -84.480000000000004         -1.3092030714742520E-012
  -84.465000000000003         -8.9915840615142906E-013
  -84.450000000000003         -4.9448997414131002E-013
  -84.435000000000002         -1.0151746115830487E-013
  -84.420000000000002          2.7405020527199175E-013
  -84.405000000000001          6.2721952198002695E-013
  -84.390000000000001          9.5378956468938902E-013
  -84.375000000000000          1.2503991982451557E-012
  -84.359999999999999          1.5145430482671474E-012
  -84.344999999999999          1.7445563223195126E-012
  -84.329999999999998          1.9395687313183974E-012
  -84.314999999999998          2.0994308722044330E-012
  -84.299999999999997          2.2246145897630853E-012
  -84.284999999999997          2.3160939312261153E-012
  -84.269999999999996          2.3752081031169769E-012
  -84.254999999999995          2.4035157544788355E-012
  -84.239999999999995          2.4026449232938951E-012
  -84.224999999999994          2.3741451513070722E-012
  -84.209999999999994          2.3193491398287858E-012
  -84.194999999999993          2.2392508854107707E-012
  -84.180000000000007          2.1344050658844704E-012
  -84.165000000000006          2.0048537482941775E-012
  -84.150000000000006          1.8500864902570857E-012
  -84.135000000000005          1.6690352442130796E-012
  -84.120000000000005          1.4601082929527331E-012
  -84.105000000000004          1.2212633248437355E-012
  -84.090000000000003          9.5011954033552559E-013
  -84.075000000000003          6.4410629607714043E-013
  -84.060000000000002          3.0064552193273530E-013
  -84.045000000000002         -8.2637347485758905E-014
  -84.030000000000001         -5.0768097408296353E-013
  -84.015000000000001         -9.7574118923526854E-013
  -84.000000000000000         -1.4871389709958382E-012
  -83.984999999999999         -2.0410123244274381E-012
  -83.969999999999999         -2.6350829070848070E-012
  -83.954999999999998         -3.2654465069448246E-012
  -83.939999999999998         -3.9263991363780448E-012
  -83.924999999999997         -4.6103082289306041E-012
  -83.909999999999997         -5.3075365283317133E-012
  -83.894999999999996         -6.0064275601845463E-012
  -83.879999999999995         -6.6933581073513881E-012
  -83.864999999999995         -7.3528665794908576E-012
  -83.849999999999994         -7.9678477357680855E-012
  -83.834999999999994         -8.5198324090152155E-012
  -83.819999999999993         -8.9893327157031244E-012
  -83.805000000000007         -9.3562562211713107E-012
  -83.790000000000006         -9.6003821212220508E-012
  -83.775000000000006         -9.7018877306953577E-012
  -83.760000000000005         -9.6419166054073635E-012
  -83.745000000000005         -9.4031666134086755E-012
  -83.730000000000004         -8.9704970882009682E-012
  -83.715000000000003         -8.3315238388892432E-012
  -83.700000000000003         -7.4771898742054255E-012
  -83.685000000000002         -6.4022962278920126E-012
  -83.670000000000002         -5.1059755382110161E-012
  -83.655000000000001         -3.5920840954495326E-012
  -83.640000000000001         -1.8695036838045631E-012
  -83.625000000000000          4.7663838208342885E-014
  -83.609999999999999          2.1400225341805523E-012
  -83.594999999999999          4.3829358545299790E-012
  -83.579999999999998          6.7467169004298277E-012
  -83.564999999999998          9.1969548296488846E-012
  -83.549999999999997          1.1694978319098936E-011
  -83.534999999999997          1.4198455779157459E-011
  -83.519999999999996          1.6662117865995363E-011
  -83.504999999999995          1.9038593618292410E-011
  -83.489999999999995          2.1279342871105555E-011
  -83.474999999999994          2.3335666732293703E-011
  -83.459999999999994          2.5159777039540643E-011
  -83.444999999999993          2.6705892705591872E-011
  -83.430000000000007          2.7931351676002691E-011
  -83.415000000000006          2.8797691661863745E-011
  -83.400000000000006          2.9271685769716171E-011
  -83.385000000000005          2.9326308742527729E-011
  -83.370000000000005          2.8941580035302117E-011
  -83.355000000000004          2.8105299337832790E-011
  -83.340000000000003          2.6813619033450031E-011
  -83.325000000000003          2.5071455328484760E-011
  -83.310000000000002          2.2892699888532597E-011
  -83.295000000000002          2.0300247594029486E-011
  -83.280000000000001          1.7325816129010185E-011
  -83.265000000000001          1.4009553933602703E-011
  -83.250000000000000          1.0399453000131675E-011
  -83.234999999999999          6.5505678138733092E-012
  -83.219999999999999          2.5240532320475184E-012
  -83.204999999999998         -1.6139589664732057E-012
  -83.189999999999998         -5.7936186230456155E-012
  -83.174999999999997         -9.9427280644825977E-012
  -83.159999999999997         -1.3988193416081263E-011
  -83.144999999999996         -1.7857519282737933E-011
  -83.129999999999995         -2.1480317524691372E-011
  -83.114999999999995         -2.4789793481860833E-011
  -83.099999999999994         -2.7724170181819829E-011
  -83.084999999999994         -3.0228021474787425E-011
  -83.069999999999993         -3.2253477666444041E-011
  -83.055000000000007         -3.3761278495081370E-011
  -83.040000000000006         -3.4721642228063843E-011
  -83.025000000000006         -3.5114924856749496E-011
  -83.010000000000005         -3.4932071124593733E-011
  -82.995000000000005         -3.4174829632860337E-011
  -82.980000000000004         -3.2855725085045862E-011
  -82.965000000000003         -3.0997818895039941E-011
  -82.950000000000003         -2.8634193974252931E-011
  -82.935000000000002         -2.5807279924183746E-011
  -82.920000000000002         -2.2567944041318455E-011
  -82.905000000000001         -1.8974414053851696E-011
  -82.890000000000001         -1.5091056876359588E-011
  -82.875000000000000         -1.0987045474808443E-011
  -82.859999999999999         -6.7349307554531723E-012
  -82.844999999999999         -2.4091791929470308E-012
  -82.829999999999998          1.9153075393046892E-012
  -82.814999999999998          6.1646443158536179E-012
  -82.799999999999997          1.0267357276882993E-011
  -82.784999999999997          1.4155677498239871E-011
  -82.769999999999996          1.7766723856005306E-011
  -82.754999999999995          2.1043526296504744E-011
  -82.739999999999995          2.3935889728599058E-011
  -82.724999999999994          2.6401067096393227E-011
  -82.709999999999994          2.8404237295553969E-011
  -82.694999999999993          2.9918793137406752E-011
  -82.680000000000007          3.0926428085109592E-011
  -82.665000000000006          3.1417032170244497E-011
  -82.650000000000006          3.1388412702337831E-011
  -82.635000000000005          3.0845870996332181E-011
  -82.620000000000005          2.9801619505498422E-011
  -82.605000000000004          2.8274107014003569E-011
  -82.590000000000003          2.6287264032198721E-011
  -82.575000000000003          2.3869690946032307E-011
  -82.560000000000002          2.1053821880334667E-011
  -82.545000000000002          1.7875107644060861E-011
  -82.530000000000001          1.4371229033194322E-011
  -82.515000000000001          1.0581377787866053E-011
  -82.500000000000000          6.5456216835624303E-012
  -82.484999999999999          2.3043730552202435E-012
  -82.469999999999999         -2.1020253680031908E-012
  -82.454999999999998         -6.6335899447100832E-012
  -82.439999999999998         -1.1250858751588044E-011
  -82.424999999999997         -1.5914934300975681E-011
  -82.409999999999997         -2.0587405044625307E-011
  -82.394999999999996         -2.5230180791813162E-011
  -82.379999999999995         -2.9805231199775406E-011
  -82.364999999999995         -3.4274298676972847E-011
  -82.349999999999994         -3.8598544499501841E-011
  -82.334999999999994         -4.2738229621974710E-011
  -82.319999999999993         -4.6652414570358403E-011
  -82.305000000000007         -5.0298716580687852E-011
  -82.290000000000006         -5.3633170821187903E-011
  -82.275000000000006         -5.6610199167250741E-011
  -82.260000000000005         -5.9182735101526163E-011
  -82.245000000000005         -6.1302490861336878E-011
  -82.230000000000004         -6.2920425814017023E-011
  -82.215000000000003         -6.3987357079575702E-011
  -82.200000000000003         -6.4454795667412412E-011
  -82.185000000000002         -6.4275924860357492E-011
  -82.170000000000002         -6.3406731254378457E-011
  -82.155000000000001         -6.1807295392846129E-011
  -82.140000000000001         -5.9443186484209320E-011
  -82.125000000000000         -5.6286898753032943E-011
  -82.109999999999999         -5.2319336363293445E-011
  -82.094999999999999         -4.7531287933333388E-011
  -82.079999999999998         -4.1924810845195282E-011
  -82.064999999999998         -3.5514511470546850E-011
  -82.049999999999997         -2.8328657128429136E-011
  -82.034999999999997         -2.0410062528952722E-011
  -82.019999999999996         -1.1816715141110823E-011
  -82.004999999999995         -2.6220885272071337E-012
  -81.989999999999995          7.0848838948367465E-012
  -81.974999999999994          1.7200206536838181E-011
  -81.960000000000008          2.7605615710024622E-011
  -81.944999999999993          3.8169765959050750E-011
  -81.930000000000007          4.8749813214010729E-011
  -81.915000000000006          5.9193400181456468E-011
  -81.900000000000006          6.9340956587726765E-011
  -81.885000000000005          7.9028408817016782E-011
  -81.870000000000005          8.8090063021795117E-011
  -81.855000000000004          9.6361821300128270E-011
  -81.840000000000003          1.0368444991470938E-010