  -90.000000000000000          0.0000000000000000     
  -89.984999999999999          0.0000000000000000     
  -89.969999999999999          0.0000000000000000     
  -89.954999999999998          0.0000000000000000     
  -89.939999999999998          0.0000000000000000     
  -89.924999999999997          0.0000000000000000     
  -89.909999999999997          0.0000000000000000     
  -89.894999999999996          0.0000000000000000     
  -89.879999999999995          0.0000000000000000     
  -89.864999999999995          0.0000000000000000     
  -89.849999999999994          0.0000000000000000     
  -89.834999999999994          0.0000000000000000     
  -89.819999999999993          0.0000000000000000     
  -89.805000000000007          0.0000000000000000     
  -89.790000000000006          0.0000000000000000     
  -89.775000000000006          0.0000000000000000     
  -89.760000000000005          0.0000000000000000     
  -89.745000000000005          0.0000000000000000     
  -89.730000000000004          0.0000000000000000     
  -89.715000000000003          0.0000000000000000     
  -89.700000000000003          0.0000000000000000     
  -89.685000000000002          0.0000000000000000     
  -89.670000000000002          0.0000000000000000     
  -89.655000000000001          0.0000000000000000     
  -89.640000000000001          0.0000000000000000     
  -89.625000000000000          0.0000000000000000     
  -89.609999999999999          0.0000000000000000     
  -89.594999999999999          0.0000000000000000     
  -89.579999999999998          0.0000000000000000     
  -89.564999999999998          0.0000000000000000     
  -89.549999999999997          0.0000000000000000     
  -89.534999999999997          0.0000000000000000     
  -89.519999999999996          0.0000000000000000     
  -89.504999999999995          0.0000000000000000     
  -89.489999999999995          0.0000000000000000     
  -89.474999999999994          0.0000000000000000     
  -89.459999999999994          0.0000000000000000     
  -89.444999999999993          0.0000000000000000     
  -89.430000000000007          0.0000000000000000     
  -89.415000000000006          0.0000000000000000     
  -89.400000000000006          0.0000000000000000     
  -89.385000000000005          0.0000000000000000     
  -89.370000000000005          0.0000000000000000     
  -89.355000000000004          0.0000000000000000     
  -89.340000000000003          0.0000000000000000     
  -89.325000000000003          0.0000000000000000     
  -89.310000000000002          0.0000000000000000     
  -89.295000000000002          0.0000000000000000     
  -89.280000000000001          0.0000000000000000     
  -89.265000000000001          0.0000000000000000     
  -89.250000000000000          0.0000000000000000     
  -89.234999999999999          0.0000000000000000     
  -89.219999999999999          0.0000000000000000     
  -89.204999999999998          0.0000000000000000     
  -89.189999999999998          0.0000000000000000     
  -89.174999999999997          0.0000000000000000     
  -89.159999999999997          0.0000000000000000     
  -89.144999999999996          0.0000000000000000     
  -89.129999999999995          0.0000000000000000     
  -89.114999999999995          0.0000000000000000     
  -89.099999999999994          0.0000000000000000     
  -89.084999999999994          2.0349439097663023E-038
  -89.069999999999993          5.5300248445565707E-038
  -89.055000000000007          1.1006142297709951E-037
  -89.040000000000006          2.0909704848370907E-037
  -89.025000000000006          3.5801456090023657E-037
  -89.010000000000005          5.6600767766413826E-037
  -88.995000000000005          8.4685735081374557E-037
  -88.980000000000004          1.2599872223934201E-036
  -88.965000000000003          1.8641915160188997E-036
  -88.950000000000003          2.7417571680083890E-036
  -88.935000000000002          3.9990767665412432E-036
  -88.920000000000002          5.8082026787398315E-036
  -88.905000000000001          8.3845729071116465E-036
  -88.890000000000001          1.2053308425662424E-035
  -88.875000000000000          1.7238449593394295E-035
  -88.859999999999999          2.4086154754837145E-035
  -88.844999999999999          3.3154872692268463E-035
  -88.829999999999998          4.4970846627406833E-035
  -88.814999999999998          6.0529791447908255E-035
  -88.799999999999997          8.1022957031904623E-035
  -88.784999999999997          1.0798498626667734E-034
  -88.769999999999996          1.4318048099174668E-034
  -88.754999999999995          1.8910698788118836E-034
  -88.739999999999995          2.4846724854580608E-034
  -88.724999999999994          3.2444043567103422E-034
  -88.709999999999994          4.2119592670019366E-034
  -88.694999999999993          5.4339499295290150E-034
  -88.680000000000007          6.9633387932808527E-034
  -88.665000000000006          8.8588367501287343E-034
  -88.650000000000006          1.1183817639261366E-033
  -88.635000000000005          1.4003948891384001E-033
  -88.620000000000005          1.7383682494410240E-033
  -88.605000000000004          2.1380326553007554E-033
  -88.590000000000003          2.6037943738232548E-033
  -88.575000000000003          3.1375174819095371E-033
  -88.560000000000002          3.7371378849479552E-033
  -88.545000000000002          4.3947700362254071E-033
  -88.530000000000001          5.0942512557600710E-033
  -88.515000000000001          5.8080150989992103E-033
  -88.500000000000000          6.4931743892370431E-033
  -88.484999999999999          7.0866778135473697E-033
  -88.469999999999999          7.4994166553241221E-033
  -88.454999999999998          7.6091461142375055E-033
  -88.439999999999998          7.2521146844301907E-033
  -88.424999999999997          6.2132664091032092E-033
  -88.409999999999997          4.2150244603572018E-033
  -88.394999999999996          9.0457945348522112E-034
  -88.379999999999995         -4.1602240157478207E-033
  -88.364999999999995         -1.1526245204798645E-032
  -88.349999999999994         -2.1861375208220513E-032
  -88.334999999999994         -3.5971384914117378E-032
  -88.319999999999993         -5.4816675247630126E-032
  -88.305000000000007         -7.9528070304881861E-032
  -88.290000000000006         -1.1142051333153292E-031
  -88.275000000000006         -1.5200326854437806E-031
  -88.260000000000005         -2.0298476416807189E-031
  -88.245000000000005         -2.6627008863216154E-031
  -88.230000000000004         -3.4394835400681542E-031
  -88.215000000000003         -4.3826698794137065E-031
  -88.200000000000003         -5.5158967447646068E-031
  -88.185000000000002         -6.8633391178409963E-031
  -88.170000000000002         -8.4488374346707717E-031
  -88.155000000000001         -1.0294736902467584E-030
  -88.140000000000001         -1.2420385217850488E-030
  -88.125000000000000         -1.4840238140148155E-030
  -88.109999999999999         -1.7561535774166171E-030
  -88.094999999999999         -2.0581491728095345E-030
  -88.079999999999998         -2.3883961292323744E-030
  -88.064999999999998         -2.7435564188869939E-030
  -88.049999999999997         -3.1181242143132374E-030
  -88.034999999999997         -3.5039255979932270E-030
  -88.019999999999996         -3.8895637290177745E-030
  -88.004999999999995         -4.2598169899787598E-030
  -87.989999999999995         -4.5949983895677076E-030
  -87.974999999999994         -4.8702856248353658E-030
  -87.959999999999994         -5.0550451249202097E-030
  -87.944999999999993         -5.1121700126300580E-030
  -87.930000000000007         -4.9974583149502623E-030
  -87.915000000000006         -4.6590682859813100E-030
  -87.900000000000006         -4.0370925958651826E-030
  -87.885000000000005         -3.0632959604462516E-030
  -87.870000000000005         -1.6610696261300155E-030
  -87.855000000000004          2.5433574117611617E-031
  -87.840000000000003          2.7752368379975871E-030
  -87.825000000000003          6.0005352921340515E-030
  -87.810000000000002          1.0034256758280172E-029
  -87.795000000000002          1.4983536355807180E-029
  -87.780000000000001          2.0955989558097827E-029
  -87.765000000000001          2.8056399743505317E-029
  -87.750000000000000          3.6382655310718667E-029
  -87.734999999999999          4.6020926578421518E-029
  -87.719999999999999          5.7040014384611563E-029
  -87.704999999999998          6.9484880165693632E-029
  -87.689999999999998          8.3369402654329465E-029
  -87.674999999999997          9.8668352168247588E-029
  -87.659999999999997          1.1530871188843142E-028
  -87.644999999999996          1.3316048154363483E-028
  -87.629999999999995          1.5202704776066017E-028
  -87.614999999999995          1.7163540996989056E-028
  -87.599999999999994          1.9162650260731931E-028
  -87.584999999999994          2.1154590250256824E-028
  -87.569999999999993          2.3083531867594595E-028
  -87.555000000000007          2.4882511732285116E-028
  -87.540000000000006          2.6472853198687737E-028
  -87.525000000000006          2.7763789595935918E-028
  -87.510000000000005          2.8652351079552996E-028
  -87.495000000000005          2.9023535557734748E-028
  -87.480000000000004          2.8750862396208403E-028
  -87.465000000000003          2.7697318531317823E-028
  -87.450000000000003          2.5716752361820752E-028
  -87.435000000000002          2.2655778012121329E-028
  -87.420000000000002          1.8356176726169498E-028
  -87.405000000000001          1.2657866410694006E-028
  -87.390000000000001          5.4024182629102362E-029
  -87.375000000000000         -3.5628813228564584E-029
  -87.359999999999999         -1.4380431393722317E-028
  -87.344999999999999         -2.7177230779485772E-028
  -87.329999999999998         -4.2059358497777458E-028
  -87.314999999999998         -5.9106120732588594E-028
  -87.299999999999997         -7.8363917951104330E-028
  -87.284999999999997         -9.9840015724039868E-028
  -87.269999999999996         -1.2349629989779578E-027
  -87.254999999999995         -1.4924321954478293E-027
  -87.239999999999995         -1.7693408621078706E-027
  -87.224999999999994         -2.0635984982999465E-027
  -87.209999999999994         -2.3724465945647112E-027
  -87.194999999999993         -2.6924230992341343E-027
  -87.180000000000007         -3.0193368035632402E-027
  -87.165000000000006         -3.3482557861504421E-027
  -87.150000000000006         -3.6735095314604806E-027
  -87.135000000000005         -3.9887053002289512E-027
  -87.120000000000005         -4.2867618332363310E-027
  -87.105000000000004         -4.5599576921495825E-027
  -87.090000000000003         -4.7999990522561967E-027
  -87.075000000000003         -4.9981002063358678E-027
  -87.060000000000002         -5.1450794759717241E-027
  -87.045000000000002         -5.2314670636272135E-027
  -87.030000000000001         -5.2476236899306780E-027
  -87.015000000000001         -5.1838665494937164E-027
  -87.000000000000000         -5.0305952667295470E-027
  -86.984999999999999         -4.7784217035312599E-027
  -86.969999999999999         -4.4182889817423796E-027
  -86.954999999999998         -3.9415858833955620E-027
  -86.939999999999998         -3.3402443027677801E-027
  -86.924999999999997         -2.6068203280309826E-027
  -86.909999999999997         -1.7345512487784484E-027
  -86.894999999999996         -7.1739084869101672E-028
  -86.879999999999995          4.4998168703691968E-028
  -86.864999999999995          1.7721792976599085E-027
  -86.849999999999994          3.2531472025207783E-027
  -86.834999999999994          4.8962250604395939E-027
  -86.819999999999993          6.7042214550542551E-027
  -86.805000000000007          8.6794968061046030E-027
  -86.790000000000006          1.0824041369595167E-026
  -86.775000000000006          1.3139533786065476E-026
  -86.760000000000005          1.5627369969539221E-026
  -86.745000000000005          1.8288644618596791E-026
  -86.730000000000004          2.1124052608762123E-026
  -86.715000000000003          2.4133721821783522E-026
  -86.700000000000003          2.7316915782050256E-026
  -86.685000000000002          3.0671623818700385E-026
  -86.670000000000002          3.4193992531101177E-026
  -86.655000000000001          3.7877603179933980E-026
  -86.640000000000001          4.1712570351980242E-026
  -86.625000000000000          4.5684457276376837E-026
  -86.609999999999999          4.9773003170108812E-026
  -86.594999999999999          5.3950684183154938E-026
  -86.579999999999998          5.8181098698822343E-026
  -86.564999999999998          6.2417238619028422E-026
  -86.549999999999997          6.6599625064114676E-026
  -86.534999999999997          7.0654444072660541E-026
  -86.519999999999996          7.4491629916002738E-026
  -86.504999999999995          7.8003090161198521E-026
  -86.489999999999995          8.1061084808384485E-026
  -86.474999999999994          8.3516833458240783E-026
  -86.459999999999994          8.5199523072883777E-026
  -86.444999999999993          8.5915821100776100E-026
  -86.430000000000007          8.5449949432436516E-026
  -86.415000000000006          8.3564497913248433E-026
  -86.400000000000006          8.0002076020980209E-026
  -86.385000000000005          7.4487950619436980E-026
  -86.370000000000005          6.6733675951219850E-026
  -86.355000000000004          5.6441937736722004E-026
  -86.340000000000003          4.3312531260676094E-026
  -86.325000000000003          2.7049642928087973E-026
  -86.310000000000002          7.3703205041321135E-027
  -86.295000000000002         -1.5985807102605062E-026
  -86.280000000000001         -4.3245693787886079E-026
  -86.265000000000001         -7.4591026390060585E-026
  -86.250000000000000         -1.1014552973024393E-025
  -86.234999999999999         -1.4996168154756077E-025
  -86.219999999999999         -1.9400710156704211E-025
  -86.204999999999998         -2.4215083887842128E-025
  -86.189999999999998         -2.9415010921216485E-025
  -86.174999999999997         -3.4963789503211875E-025
  -86.159999999999997         -4.0811154403023747E-025
  -86.144999999999996         -4.6892332744762469E-025
  -86.129999999999995         -5.3127306915545014E-025
  -86.114999999999995         -5.9420351109713141E-025
  -86.099999999999994         -6.5659900673745968E-025
  -86.084999999999994         -7.1718771508199237E-025
  -86.069999999999993         -7.7454801017190807E-025
  -86.055000000000007         -8.2711937722525989E-025
  -86.040000000000006         -8.7321784472843386E-025
  -86.025000000000006         -9.1105674133871752E-025
  -86.010000000000005         -9.3877189012946048E-025
  -85.995000000000005         -9.5445227555776484E-025
  -85.980000000000004         -9.5617564081283329E-025
  -85.965000000000003         -9.4204783225361704E-025
  -85.950000000000003         -9.1024648258144239E-025
  -85.935000000000002         -8.5906824388671087E-025
  -85.920000000000002         -7.8697853518973474E-025
  -85.905000000000001         -6.9266242396912372E-025
  -85.890000000000001         -5.7507674028533618E-025
  -85.875000000000000         -4.3350110622048560E-025
  -85.859999999999999         -2.6758760946346623E-025
  -85.844999999999999         -7.7406871554222809E-026
  -85.829999999999998          1.3650997608792550E-025
  -85.814999999999998          3.7313522642977455E-025
  -85.799999999999997          6.3091551990430686E-025
  -85.784999999999997          9.0775101971538887E-025
  -85.769999999999996          1.2009836343909751E-024
  -85.754999999999995          1.5073957482100888E-024
  -85.739999999999995          1.8232192684513286E-024
  -85.724999999999994          2.1441560864725978E-024
  -85.709999999999994          2.4654104210082186E-024
  -85.694999999999993          2.7817316138730397E-024
  -85.680000000000007          3.0874682655420579E-024
  -85.665000000000006          3.3766335133903246E-024
  -85.650000000000006          3.6429778041114526E-024
  -85.635000000000005          3.8800723157583434E-024
  -85.620000000000005          4.0813967185188926E-024
  -85.605000000000004          4.2404342324550694E-024
  -85.590000000000003          4.3507698406856167E-024
  -85.575000000000003          4.4061904747210136E-024
  -85.560000000000002          4.4007851997984393E-024
  -85.545000000000002          4.3290457946471879E-024
  -85.530000000000001          4.1859633869495586E-024
  -85.515000000000001          3.9671211444972190E-024
  -85.500000000000000          3.6687861774866632E-024
  -85.484999999999999          3.2879911856229025E-024
  -85.469999999999999          2.8226170912992869E-024
  -85.454999999999998          2.2714671925225961E-024
  -85.439999999999998          1.6343395409010935E-024
  -85.424999999999997          9.1209665722702512E-025
  -85.409999999999997          1.0673495123627910E-025
  -85.394999999999996         -7.7854531629008267E-025
  -85.379999999999995         -1.7392671131958981E-024
  -85.364999999999995         -2.7695979470746090E-024
  -85.349999999999994         -3.8622661474056947E-024
  -85.334999999999994         -5.0084684209173413E-024
  -85.319999999999993         -6.1977677434030222E-024
  -85.305000000000007         -7.4179848913470303E-024
  -85.290000000000006         -8.6550805072191471E-024
  -85.275000000000006         -9.8930320371734287E-024
  -85.260000000000005         -1.1113712246468802E-023
  -85.245000000000005         -1.2296770101472374E-023
  -85.230000000000004         -1.3419521117993610E-023
  -85.215000000000003         -1.4456863742028378E-023
  -85.200000000000003         -1.5381219396330151E-023
  -85.185000000000002         -1.6162530902688198E-023
  -85.170000000000002         -1.6768297191807413E-023
  -85.155000000000001         -1.7163704254218582E-023
  -85.140000000000001         -1.7311833399557363E-023
  -85.125000000000000         -1.7173984689535422E-023
  -85.109999999999999         -1.6710113966881932E-023
  -85.094999999999999         -1.5879424501022481E-023
  -85.079999999999998         -1.4641099050999124E-023
  -85.064999999999998         -1.2955207055511385E-023
  -85.049999999999997         -1.0783783794634597E-023
  -85.034999999999997         -8.0920870452419206E-024
  -85.019999999999996         -4.8500312301300376E-024
  -85.004999999999995         -1.0337919611003681E-024
  -84.989999999999995          3.3724363789440962E-024
  -84.974999999999994          8.3745497364089770E-024
  -84.959999999999994          1.3966545668666448E-023
  -84.944999999999993          2.0128475461145279E-023
  -84.930000000000007          2.6824375734037351E-023
  -84.915000000000006          3.4000271046485631E-023
  -84.900000000000006          4.1582259331167205E-023
  -84.885000000000005          4.9474818998790670E-023
  -84.870000000000005          5.7559374788970445E-023
  -84.855000000000004          6.5693212297621188E-023
  -84.840000000000003          7.3708872131782581E-023
  -84.825000000000003          8.1414048935423468E-023
  -84.810000000000002          8.8592171991068092E-023
  -84.795000000000002          9.5003648464582728E-023
  -84.780000000000001          1.0038793337619098E-022
  -84.765000000000001          1.0446648309570293E-022
  -84.750000000000000          1.0694659236195813E-022
  -84.734999999999999          1.0752618424624211E-022
  -84.719999999999999          1.0589961616854881E-022
  -84.704999999999998          1.0176436312716957E-022
  -84.689999999999998          9.4828679115804708E-023
  -84.674999999999997          8.4820085266903643E-023
  -84.659999999999997          7.1494577436150652E-023
  -84.644999999999996          5.4646496430110997E-023
  -84.629999999999995          3.4118767420780690E-023
  -84.614999999999995          9.8134454381674913E-024
  -84.599999999999994         -1.8297781735616982E-023
  -84.584999999999994         -5.0163343107754811E-023
  -84.569999999999993         -8.5642059397482212E-023
  -84.555000000000007         -1.2449434250383089E-022
  -84.540000000000006         -1.6637448833458403E-022
  -84.525000000000006         -2.1082457891147895E-022
  -84.510000000000005         -2.5727023514309335E-022
  -84.495000000000005         -3.0501838277076178E-022
  -84.480000000000004         -3.5325776986132945E-022
  -84.465000000000003         -4.0106210962899859E-022
  -84.450000000000003         -4.4739616413062956E-022
  -84.435000000000002         -4.9112505913530970E-022
  -84.420000000000002         -5.3102698162948373E-022
  -84.405000000000001         -5.6580931044474375E-022
  -84.390000000000001         -5.9412797805988695E-022
  -84.375000000000000         -6.1461013930788807E-022
  -84.359999999999999         -6.2588017223133547E-022
  -84.344999999999999         -6.2658820329276391E-022
  -84.329999999999998         -6.1544125791407996E-022
  -84.314999999999998         -5.9123638001280674E-022
  -84.299999999999997         -5.5289531663836473E-022
  -84.284999999999997         -4.9950001040191943E-022
  -84.269999999999996         -4.3032814239332705E-022
  -84.254999999999995         -3.4488804400935590E-022
  -84.239999999999995         -2.4295234660445957E-022
  -84.224999999999994         -1.2458916989552570E-022
  -84.209999999999994          9.8098143114207590E-024
  -84.194999999999993          1.5950522641143878E-022
  -84.180000000000007          3.2339073868319293E-022
  -84.165000000000006          4.9997953685809794E-022
  -84.150000000000006          6.8739698450276109E-022
  -84.135000000000005          8.8338042659261678E-022
  -84.120000000000005          1.0852863081927353E-021
  -84.105000000000004          1.2901056992404373E-021
  -84.090000000000003          1.4944873671490504E-021
  -84.075000000000003          1.6947694827054109E-021
  -84.060000000000002          1.8870199087740159E-021
  -84.045000000000002          2.0670835571948854E-021
  -84.030000000000001          2.2306387323848564E-021
  -84.015000000000001          2.3732587255970632E-021
  -84.000000000000000          2.4904818910128696E-021
  -83.984999999999999          2.5778849530080693E-021
  -83.969999999999999          2.6311627757676218E-021
  -83.954999999999998          2.6462099504359143E-021
  -83.939999999999998          2.6192046036993321E-021
  -83.924999999999997          2.5466942258527464E-021
  -83.909999999999997          2.4256790754853023E-021
  -83.894999999999996          2.2536945744242464E-021
  -83.879999999999995          2.0288908754012718E-021
  -83.864999999999995          1.7501061693187179E-021
  -83.849999999999994          1.4169359535479363E-021
  -83.834999999999994          1.0297935154726159E-021
  -83.819999999999993          5.8996370124808282E-022
  -83.805000000000007          9.9646221109553218E-023
  -83.790000000000006         -4.3800985531820304E-022
  -83.775000000000006         -1.0188830516606555E-021
  -83.760000000000005         -1.6378673931335579E-021
  -83.745000000000005         -2.2888719647808411E-021
  -83.730000000000004         -2.9648316021176011E-021
  -83.715000000000003         -3.6577320841919674E-021
  -83.700000000000003         -4.3586452726052660E-021
  -83.685000000000002         -5.0577776801002314E-021
  -83.670000000000002         -5.7445322667688785E-021
  -83.655000000000001         -6.4075817473187024E-021
  -83.640000000000001         -7.0349562366746927E-021
  -83.625000000000000         -7.6141426085880674E-021
  -83.609999999999999         -8.1321959711485119E-021
  -83.594999999999999         -8.5758677020645396E-021
  -83.579999999999998         -8.9317468125377078E-021
  -83.564999999999998         -9.1864101968660695E-021
  -83.549999999999997         -9.3265963080610671E-021
  -83.534999999999997         -9.3393852958129611E-021
  -83.519999999999996         -9.2124017626761341E-021
  -83.504999999999995         -8.9340272137771972E-021
  -83.489999999999995         -8.4936318935687038E-021
  -83.474999999999994         -7.8818179316928004E-021
  -83.459999999999994         -7.0906834914776182E-021
  -83.444999999999993         -6.1140913612982825E-021
  -83.430000000000007         -4.9479577407770963E-021
  -83.415000000000006         -3.5905434503644241E-021
  -83.400000000000006         -2.0427534208036375E-021
  -83.385000000000005         -3.0843691465898066E-022
  -83.370000000000005          1.6053162406373015E-021
  -83.355000000000004          3.6878890375299907E-021
  -83.340000000000003          5.9248689494153757E-021
  -83.325000000000003          8.2978049614824439E-021
  -83.310000000000002          1.0783998074500004E-020
  -83.295000000000002          1.3356341563638821E-020
  -83.280000000000001          1.5983208695165814E-020
  -83.265000000000001          1.8628417587423891E-020
  -83.250000000000000          2.1251266753748893E-020
  -83.234999999999999          2.3806661926059610E-020
  -83.219999999999999          2.6245355161753592E-020
  -83.204999999999998          2.8514279270243869E-020
  -83.189999999999998          3.0557021179989178E-020
  -83.174999999999997          3.2314405165449299E-020
  -83.159999999999997          3.3725239248340914E-020
  -83.144999999999996          3.4727177921167108E-020
  -83.129999999999995          3.5257733504763180E-020
  -83.114999999999995          3.5255416752813178E-020
  -83.099999999999994          3.4661032552731276E-020
  -83.084999999999994          3.3419062868248386E-020
  -83.069999999999993          3.1479175697795218E-020
  -83.055000000000007          2.8797814812242026E-020
  -83.040000000000006          2.5339847653775182E-020
  -83.025000000000006          2.1080252008864956E-020
  -83.010000000000005          1.6005797834471901E-020
  -82.995000000000005          1.0116683847813487E-020
  -82.980000000000004          3.4281094926453745E-021
  -82.965000000000003         -4.0282879959829832E-021
  -82.950000000000003         -1.2203162124653970E-020
  -82.935000000000002         -2.1028402970976940E-020
  -82.920000000000002         -3.0416352008241146E-020
  -82.905000000000001         -4.0259326315004811E-020
  -82.890000000000001         -5.0429515177518554E-020
  -82.875000000000000         -6.0779253931744589E-020
  -82.859999999999999         -7.1141759055502643E-020
  -82.844999999999999         -8.1332339858820379E-020
  -82.829999999999998         -9.1150069001029838E-020
  -82.814999999999998         -1.0038002815688355E-019
  -82.799999999999997         -1.0879598989119680E-019
  -82.784999999999997         -1.1616364883311540E-019
  -82.769999999999996         -1.2224439568766049E-019
  -82.754999999999995         -1.2679945960113981E-019
  -82.739999999999995         -1.2959454166504770E-019
  -82.724999999999994         -1.3040472630095218E-019
  -82.709999999999994         -1.2901980623568820E-019
  -82.694999999999993         -1.2524971087412757E-019
  -82.680000000000007         -1.1893005099422243E-019
  -82.665000000000006         -1.0992775391492834E-019
  -82.650000000000006         -9.8146491868974057E-020
  -82.635000000000005         -8.3531929429872520E-020
  -82.620000000000005         -6.6076583198019534E-020
  -82.605000000000004         -4.5824222660046518E-020
  -82.590000000000003         -2.2873618350971133E-020
  -82.575000000000003          2.6184489128174538E-021
  -82.560000000000002          3.0435044351380284E-020
  -82.545000000000002          6.0297931750466760E-020
  -82.530000000000001          9.1867506010751807E-020
  -82.515000000000001          1.2474388992955139E-019
  -82.500000000000000          1.5846928427425716E-019
  -82.484999999999999          1.9253157377281929E-019
  -82.469999999999999          2.2636929665977034E-019
  -82.454999999999998          2.5937783560612234E-019
  -82.439999999999998          2.9091699159185046E-019
  -82.424999999999997          3.2031964345293067E-019
  -82.409999999999997          3.4690168697338749E-019
  -82.394999999999996          3.6997291748022783E-019
  -82.379999999999995          3.8884886886595822E-019
  -82.364999999999995          4.0286327299656132E-019
  -82.349999999999994          4.1138116535432612E-019
  -82.334999999999994          4.1381222332522533E-019
  -82.319999999999993          4.0962441467902249E-019
  -82.305000000000007          3.9835720660967870E-019
  -82.290000000000006          3.7963467137818276E-019
  -82.275000000000006          3.5317786817234530E-019
  -82.260000000000005          3.1881624268961555E-019
  -82.245000000000005          2.7649804444292064E-019
  -82.230000000000004          2.2629937404861547E-019
  -82.215000000000003          1.6843143398153955E-019
  -82.200000000000003          1.0324623482877393E-019
  -82.185000000000002          3.1240156043684338E-020
  -82.170000000000002         -4.6944590332135578E-020
  -82.155000000000001         -1.3052076423125688E-019
  -82.140000000000001         -2.1855928996059194E-019
  -82.125000000000000         -3.0999482674583207E-019
  -82.109999999999999         -4.0363376588776032E-019
  -82.094999999999999         -4.9816481932032702E-019
  -82.079999999999998         -5.9217167288908238E-019
  -82.064999999999998         -6.8414831504190290E-019
  -82.049999999999997         -7.7251601988094285E-019
  -82.034999999999997         -8.5564307025036480E-019
  -82.019999999999996         -9.3186548895044178E-019
  -82.004999999999995         -9.9950983790319073E-019
  -81.989999999999995         -1.0569175165828662E-018
  -81.974999999999994         -1.1024696291331255E-018
  -81.960000000000008         -1.1346131439539002E-018
  -81.944999999999993         -1.1518872600834216E-018
  -81.930000000000007         -1.1529504973632820E-018
  -81.915000000000006         -1.1366068560253061E-018
  -81.900000000000006         -1.1018323898687300E-018
  -81.885000000000005         -1.0478008488591896E-018
  -81.870000000000005         -9.7390787416163854E-019
  -81.855000000000004         -8.7979405579992241E-019
  -81.840000000000003         -7.6536638765391732E-019