  -90.000000000000000          0.0000000000000000     
  -89.984999999999999          0.0000000000000000     
  -89.969999999999999          0.0000000000000000     
  -89.954999999999998          0.0000000000000000     
  -89.939999999999998          0.0000000000000000     
  -89.924999999999997          0.0000000000000000     
  -89.909999999999997          0.0000000000000000     
  -89.894999999999996          0.0000000000000000     
  -89.879999999999995          0.0000000000000000     
  -89.864999999999995          0.0000000000000000     
  -89.849999999999994          0.0000000000000000     
  -89.834999999999994          0.0000000000000000     
  -89.819999999999993          0.0000000000000000     
  -89.805000000000007          0.0000000000000000     
  -89.790000000000006          0.0000000000000000     
  -89.775000000000006          0.0000000000000000     
  -89.760000000000005          0.0000000000000000     
  -89.745000000000005          0.0000000000000000     
  -89.730000000000004          0.0000000000000000     
  -89.715000000000003          0.0000000000000000     
  -89.700000000000003          0.0000000000000000     
  -89.685000000000002          0.0000000000000000     
  -89.670000000000002          0.0000000000000000     
  -89.655000000000001          0.0000000000000000     
  -89.640000000000001          0.0000000000000000     
  -89.625000000000000          0.0000000000000000     
  -89.609999999999999         -1.4368868210337352E-038
  -89.594999999999999         -4.4947410549583100E-038
  -89.579999999999998         -1.1690581309237051E-037
  -89.564999999999998         -1.5955683177055667E-037
  -89.549999999999997         -4.2867513685730490E-038
  -89.534999999999997          3.8372103370625618E-037
  -89.519999999999996          1.3866135738835067E-036
  -89.504999999999995          3.4470776342068182E-036
  -89.489999999999995          7.3068948391346394E-036
  -89.474999999999994          1.4175428721585010E-035
  -89.459999999999994          2.5958244302891835E-035
  -89.444999999999993          4.5153587785324216E-035
  -89.430000000000007          7.5289029898006635E-035
  -89.415000000000006          1.2039544006703894E-034
  -89.400000000000006          1.8417388349294358E-034
  -89.385000000000005          2.6752458336652779E-034
  -89.370000000000005          3.6337136216120390E-034
  -89.355000000000004          4.4668376663289022E-034
  -89.340000000000003          4.5621119426405294E-034
  -89.325000000000003          2.6258665761473472E-034
  -89.310000000000002         -3.8546223004989041E-034
  -89.295000000000002         -1.9489240832572583E-033
  -89.280000000000001         -5.2385751460761697E-033
  -89.265000000000001         -1.1633073396717405E-032
  -89.250000000000000         -2.3411747931831474E-032
  -89.234999999999999         -4.4252857226359598E-032
  -89.219999999999999         -7.9966641369701903E-032
  -89.204999999999998         -1.3955612343272998E-031
  -89.189999999999998         -2.3672855202255050E-031
  -89.174999999999997         -3.9201673953030145E-031
  -89.159999999999997         -6.3571458596989415E-031
  -89.144999999999996         -1.0118818060296405E-030
  -89.129999999999995         -1.5837348872244459E-030
  -89.114999999999995         -2.4408064382394928E-030
  -89.099999999999994         -3.7083284550362439E-030
  -89.084999999999994         -5.5593671841348515E-030
  -89.069999999999993         -8.2303081447964091E-030
  -89.055000000000007         -1.2040349022704219E-029
  -89.040000000000006         -1.7415699995342139E-029
  -89.025000000000006         -2.4919192271782186E-029
  -89.010000000000005         -3.5285937513152894E-029
  -88.995000000000005         -4.9465605756500532E-029
  -88.980000000000004         -6.8671614116958588E-029
  -88.965000000000003         -9.4437228525174660E-029
  -88.950000000000003         -1.2867806015400582E-028
  -88.935000000000002         -1.7375974680973614E-028
  -88.920000000000002         -2.3256867970001877E-028
  -88.905000000000001         -3.0858239015481222E-028
  -88.890000000000001         -4.0593485068855723E-028
  -88.875000000000000         -5.2946987140788492E-028
  -88.859999999999999         -6.8477339544937172E-028
  -88.844999999999999         -8.7817349897953938E-028
  -88.829999999999998         -1.1166932781335904E-027
  -88.814999999999998         -1.4079381821136614E-027
  -88.799999999999997         -1.7598968720325733E-027
  -88.784999999999997         -2.1806291721145924E-027
  -88.769999999999996         -2.6778118391180461E-027
  -88.754999999999995         -3.2581083980575198E-027
  -88.739999999999995         -3.9263267404461819E-027
  -88.724999999999994         -4.6843253886803660E-027
  -88.709999999999994         -5.5296222042477459E-027
  -88.694999999999993         -6.4536718359850753E-027
  -88.680000000000007         -7.4397656860668285E-027
  -88.665000000000006         -8.4605216529156853E-027
  -88.650000000000006         -9.4749328361557528E-027
  -88.635000000000005         -1.0424969425818688E-026
  -88.620000000000005         -1.1231716827619213E-026
  -88.605000000000004         -1.1791090083642864E-026
  -88.590000000000003         -1.1969160025556952E-026
  -88.575000000000003         -1.1597185145726024E-026
  -88.560000000000002         -1.0466457808680678E-026
  -88.545000000000002         -8.3231535440742991E-027
  -88.530000000000001         -4.8633867993298249E-027
  -88.515000000000001          2.7122717332409892E-028
  -88.500000000000000          7.4971691836172567E-027
  -88.484999999999999          1.7291353411818371E-026
  -88.469999999999999          3.0191719054414018E-026
  -88.454999999999998          4.6795543209477344E-026
  -88.439999999999998          6.7754800926246051E-026
  -88.424999999999997          9.3768013128853789E-026
  -88.409999999999997          1.2556777275326635E-025
  -88.394999999999996          1.6390320799958006E-025
  -88.379999999999995          2.0951674791317270E-025
  -88.364999999999995          2.6311444765612034E-025
  -88.349999999999994          3.2532909693392669E-025
  -88.334999999999994          3.9667572331008792E-025
  -88.319999999999993          4.7749918225970204E-025
  -88.305000000000007          5.6791339022786363E-025
  -88.290000000000006          6.6773244721187670E-025
  -88.275000000000006          7.7639414190535155E-025
  -88.260000000000005          8.9287645570176777E-025
  -88.245000000000005          1.0156084214121843E-024
  -88.230000000000004          1.1423765939441642E-024
  -88.215000000000003          1.2702305349045676E-024
  -88.200000000000003          1.3953883465061519E-024
  -88.185000000000002          1.5131473330700552E-024
  -88.170000000000002          1.6178031427830112E-024
  -88.155000000000001          1.7025817284442738E-024
  -88.140000000000001          1.7595893534057492E-024
  -88.125000000000000          1.7797865591621227E-024
  -88.109999999999999          1.7529917152249332E-024
  -88.094999999999999          1.6679205607754467E-024
  -88.079999999999998          1.5122671615150548E-024
  -88.064999999999998          1.2728341703222495E-024
  -88.049999999999997          9.3571515272934221E-025
  -88.034999999999997          4.8653686582797971E-025
  -88.019999999999996         -8.9236370843932576E-026
  -88.004999999999995         -8.0593303850135233E-025
  -87.989999999999995         -1.6772379941422384E-024
  -87.974999999999994         -2.7156907426858785E-024
  -87.959999999999994         -3.9321205694239205E-024
  -87.944999999999993         -5.3350244923817261E-024
  -87.930000000000007         -6.9298969277641598E-024
  -87.915000000000006         -8.7185214900779261E-024
  -87.900000000000006         -1.0698237351489715E-023
  -87.885000000000005         -1.2861201656879818E-023
  -87.870000000000005         -1.5193664560670234E-023
  -87.855000000000004         -1.7675278973532598E-023
  -87.840000000000003         -2.0278474206829434E-023
  -87.825000000000003         -2.2967912447450462E-023
  -87.810000000000002         -2.5700069083811019E-023
  -87.795000000000002         -2.8422948715926177E-023
  -87.780000000000001         -3.1075979448049445E-023
  -87.765000000000001         -3.3590110707425018E-023
  -87.750000000000000         -3.5888119322319002E-023
  -87.734999999999999         -3.7885168035540306E-023
  -87.719999999999999         -3.9489629075225701E-023
  -87.704999999999998         -4.0604153850227293E-023
  -87.689999999999998         -4.1127039257200368E-023
  -87.674999999999997         -4.0953830645962801E-023
  -87.659999999999997         -3.9979192997562241E-023
  -87.644999999999996         -3.8098999827953135E-023
  -87.629999999999995         -3.5212605107403766E-023
  -87.614999999999995         -3.1225257174866228E-023
  -87.599999999999994         -2.6050626248316753E-023
  -87.584999999999994         -1.9613331935096044E-023
  -87.569999999999993         -1.1851454965031492E-023
  -87.555000000000007         -2.7189223113841164E-024
  -87.540000000000006          7.8122851819081747E-024
  -87.525000000000006          1.9750205613039131E-023
  -87.510000000000005          3.3081292268113845E-023
  -87.495000000000005          4.7769241768274045E-023
  -87.480000000000004          6.3754267923234842E-023
  -87.465000000000003          8.0952880850231264E-023
  -87.450000000000003          9.9258240383703799E-023
  -87.435000000000002          1.1854103013318138E-022
  -87.420000000000002          1.3865083641214370E-022
  -87.405000000000001          1.5941811092395341E-022
  -87.390000000000001          1.8065643005948870E-022
  -87.375000000000000          2.0216517071333376E-022
  -87.359999999999999          2.2373238804836103E-022
  -87.344999999999999          2.4513768063853902E-022
  -87.329999999999998          2.6615500512464208E-022
  -87.314999999999998          2.8655517532559814E-022
  -87.299999999999997          3.0610786910063166E-022
  -87.284999999999997          3.2458296625735879E-022
  -87.269999999999996          3.4175090196147298E-022
  -87.254999999999995          3.5738203564802077E-022
  -87.239999999999995          3.7124480824232720E-022
  -87.224999999999994          3.8310258671637494E-022
  -87.209999999999994          3.9270906976289227E-022
  -87.194999999999993          3.9980238080489477E-022
  -87.180000000000007          4.0409782309713181E-022
  -87.165000000000006          4.0527957459847634E-022
  -87.150000000000006          4.0299160029429676E-022
  -87.135000000000005          3.9682783245590877E-022
  -87.120000000000005          3.8632260333551676E-022
  -87.105000000000004          3.7094138078374299E-022
  -87.090000000000003          3.5007284177525186E-022
  -87.075000000000003          3.2302266249570405E-022
  -87.060000000000002          2.8901018619329283E-022
  -87.045000000000002          2.4716842317874413E-022
  -87.030000000000001          1.9654846844638567E-022
  -87.015000000000001          1.3612910684452903E-022
  -87.000000000000000          6.4832287370986426E-023
  -86.984999999999999         -1.8454766633477773E-023
  -86.969999999999999         -1.1485038540887194E-022
  -86.954999999999998         -2.2544178021021530E-022
  -86.939999999999998         -3.5124083554240933E-022
  -86.924999999999997         -4.9313257761046510E-022
  -86.909999999999997         -6.5181640418206431E-022
  -86.894999999999996         -8.2774167567236983E-022
  -86.879999999999995         -1.0210378410004848E-021
  -86.864999999999995         -1.2314416099506826E-021
  -86.849999999999994         -1.4582226866513460E-021
  -86.834999999999994         -1.7001098059764930E-021
  -86.819999999999993         -1.9552213137861182E-021
  -86.805000000000007         -2.2210015531827951E-021
  -86.790000000000006         -2.4941674491620622E-021
  -86.775000000000006         -2.7706677150372920E-021
  -86.760000000000005         -3.0456602342198164E-021
  -86.745000000000005         -3.3135078193027007E-021
  -86.730000000000004         -3.5677980030031332E-021
  -86.715000000000003         -3.8013900921377003E-021
  -86.700000000000003         -4.0064908982692873E-021
  -86.685000000000002         -4.1747607606127405E-021
  -86.670000000000002         -4.2974512748380313E-021
  -86.655000000000001         -4.3655781608935827E-021
  -86.640000000000001         -4.3701236152947897E-021
  -86.625000000000000         -4.3022709751552165E-021
  -86.609999999999999         -4.1536636160248036E-021
  -86.594999999999999         -3.9166901030189992E-021
  -86.579999999999998         -3.5847846900256638E-021
  -86.564999999999998         -3.1527395319186944E-021
  -86.549999999999997         -2.6170189162555671E-021
  -86.534999999999997         -1.9760670326263431E-021
  -86.519999999999996         -1.2305996871055328E-021
  -86.504999999999995         -3.8386865269687869E-022
  -86.489999999999995          5.5811295626146685E-022
  -86.474999999999994          1.5863946860735427E-021
  -86.459999999999994          2.6889745418700523E-021
  -86.444999999999993          3.8507555687041401E-021
  -86.430000000000007          5.0535840197974296E-021
  -86.415000000000006          6.2763778966913643E-021
  -86.400000000000006          7.4953492944265091E-021
  -86.385000000000005          8.6843285287112876E-021
  -86.370000000000005          9.8151902470285464E-021
  -86.355000000000004          1.0858374859383019E-020
  -86.340000000000003          1.1783513366625359E-020
  -86.325000000000003          1.2560134179823216E-020
  -86.310000000000002          1.3158445064434045E-020
  -86.295000000000002          1.3550179707963259E-020
  -86.280000000000001          1.3709486292887876E-020
  -86.265000000000001          1.3613833841038629E-020
  -86.250000000000000          1.3244921789156349E-020
  -86.234999999999999          1.2589558060499236E-020
  -86.219999999999999          1.1640477359726174E-020
  -86.204999999999998          1.0397080304010490E-020
  -86.189999999999998          8.8660562318800664E-021
  -86.174999999999997          7.0618622248025406E-021
  -86.159999999999997          5.0070365310892821E-021
  -86.144999999999996          2.7323255914337933E-021
  -86.129999999999995          2.7659722634681227E-022
  -86.114999999999995         -2.3134672594104391E-021
  -86.099999999999994         -4.9839126324418768E-021
  -86.084999999999994         -7.6742828396472206E-021
  -86.069999999999993         -1.0318621738233696E-020
  -86.055000000000007         -1.2846694908729587E-020
  -86.040000000000006         -1.5185402687881223E-020
  -86.025000000000006         -1.7260365867424886E-020
  -86.010000000000005         -1.8997645486590847E-020
  -85.995000000000005         -2.0325561175422557E-020
  -85.980000000000004         -2.1176552311154894E-020
  -85.965000000000003         -2.1489037559005273E-020
  -85.950000000000003         -2.1209225945350739E-020
  -85.935000000000002         -2.0292814839805687E-020
  -85.920000000000002         -1.8706513453889127E-020
  -85.905000000000001         -1.6429370853648738E-020
  -85.890000000000001         -1.3453822860123635E-020
  -85.875000000000000         -9.7864513752972973E-021
  -85.859999999999999         -5.4484028191652450E-021
  -85.844999999999999         -4.7545487367850985E-022
  -85.829999999999998          5.0822796745728471E-021
  -85.814999999999998          1.1161009064684488E-020
  -85.799999999999997          1.7684257157267099E-020
  -85.784999999999997          2.4564171959050651E-020
  -85.769999999999996          3.1703089612204201E-020
  -85.754999999999995          3.8995320022015626E-020
  -85.739999999999995          4.6329038709425414E-020
  -85.724999999999994          5.3588269136439948E-020
  -85.709999999999994          6.0654802023646572E-020
  -85.694999999999993          6.7410030657197692E-020
  -85.680000000000007          7.3736534164201993E-020
  -85.665000000000006          7.9519411987697030E-020
  -85.650000000000006          8.4647246776581031E-020
  -85.635000000000005          8.9012601986450136E-020
  -85.620000000000005          9.2512092965432289E-020
  -85.605000000000004          9.5045960439183887E-020
  -85.590000000000003          9.6517120545655053E-020
  -85.575000000000003          9.6829794817200097E-020
  -85.560000000000002          9.5887752421775839E-020
  -85.545000000000002          9.3592235749061689E-020
  -85.530000000000001          8.9839711513169273E-020
  -85.515000000000001          8.4519654167094726E-020
  -85.500000000000000          7.7512477951187317E-020
  -85.484999999999999          6.8687811446090446E-020
  -85.469999999999999          5.7903450672278884E-020
  -85.454999999999998          4.5005126445511489E-020
  -85.439999999999998          2.9827299245701089E-020
  -85.424999999999997          1.2195321680293189E-020
  -85.409999999999997         -8.0709498706962091E-021
  -85.394999999999996         -3.1151851282120035E-020
  -85.379999999999995         -5.7220813409420962E-020
  -85.364999999999995         -8.6435410928116074E-020
  -85.349999999999994         -1.1892656132601323E-019
  -85.334999999999994         -1.5478588778064974E-019
  -85.319999999999993         -1.9405151814838548E-019
  -85.305000000000007         -2.3669253655382627E-019
  -85.290000000000006         -2.8259232345529922E-019
  -85.275000000000006         -3.3153143042123341E-019
  -85.260000000000005         -3.8317050660532896E-019
  -85.245000000000005         -4.3703369051082062E-019
  -85.230000000000004         -4.9249356564308689E-019
  -85.215000000000003         -5.4875797731863756E-019
  -85.200000000000003         -6.0486010649776298E-019
  -85.185000000000002         -6.5965208498418097E-019
  -85.170000000000002         -7.1180334106381171E-019
  -85.155000000000001         -7.5980452861268733E-019
  -85.140000000000001         -8.0197740156551433E-019
  -85.125000000000000         -8.3649171941944255E-019
  -85.109999999999999         -8.6138928717061755E-019
  -85.094999999999999         -8.7461600856291703E-019
  -85.079999999999998         -8.7406128056462366E-019
  -85.064999999999998         -8.5760565965122343E-019
  -85.049999999999997         -8.2317550742462248E-019
  -85.034999999999997         -7.6880440877362913E-019
  -85.019999999999996         -6.9270079388903008E-019
  -85.004999999999995         -5.9331995467567084E-019
  -84.989999999999995         -4.6943905969425661E-019
  -84.974999999999994         -3.2023400441013729E-019
  -84.959999999999994         -1.4535509821935610E-019
  -84.944999999999993          5.4999768841230727E-020
  -84.930000000000007          2.8001738775660407E-019
  -84.915000000000006          5.2820951843311324E-019
  -84.900000000000006          7.9736359490384668E-019
  -84.885000000000005          1.0845063681557708E-018
  -84.870000000000005          1.3858837306776020E-018
  -84.855000000000004          1.6969576145325095E-018
  -84.840000000000003          2.0124237240424970E-018
  -84.825000000000003          2.3262512921565935E-018
  -84.810000000000002          2.6317448088040651E-018
  -84.795000000000002          2.9216300476781206E-018
  -84.780000000000001          3.1881652186307228E-018
  -84.765000000000001          3.4232745573415167E-018
  -84.750000000000000          3.6187042488632951E-018
  -84.734999999999999          3.7662000646585442E-018
  -84.719999999999999          3.8577015432482413E-018
  -84.704999999999998          3.8855523008825955E-018
  -84.689999999999998          3.8427196479936809E-018
  -84.674999999999997          3.7230204095026637E-018
  -84.659999999999997          3.5213475723076414E-018
  -84.644999999999996          3.2338903153265822E-018
  -84.629999999999995          2.8583453541438323E-018
  -84.614999999999995          2.3941080197316154E-018
  -84.599999999999994          1.8424397625240749E-018
  -84.584999999999994          1.2066068085674529E-018
  -84.569999999999993          4.9198035177178603E-019
  -84.555000000000007         -2.9390329454892588E-019
  -84.540000000000006         -1.1413299539254073E-018
  -84.525000000000006         -2.0384449649570370E-018
  -84.510000000000005         -2.9713440160828638E-018
  -84.495000000000005         -3.9242188586163868E-018
  -84.480000000000004         -4.8795578721947053E-018
  -84.465000000000003         -5.8184024907684101E-018
  -84.450000000000003         -6.7206534662233815E-018
  -84.435000000000002         -7.5654253152732681E-018
  -84.420000000000002         -8.3314450205147375E-018
  -84.405000000000001         -8.9974817507556973E-018
  -84.390000000000001         -9.5428080142067938E-018
  -84.375000000000000         -9.9476773552851610E-018
  -84.359999999999999         -1.0193804119369702E-017
  -84.344999999999999         -1.0264848180640044E-017
  -84.329999999999998         -1.0146874027316506E-017
  -84.314999999999998         -9.8287916489265897E-018
  -84.299999999999997         -9.3027494470959419E-018
  -84.284999999999997         -8.5644857873086894E-018
  -84.269999999999996         -7.6136102403157071E-018
  -84.254999999999995         -6.4538198898648007E-018
  -84.239999999999995         -5.0930399534048408E-018
  -84.224999999999994         -3.5434734129225160E-018
  -84.209999999999994         -1.8215664801517587E-018
  -84.194999999999993          5.2115415894652462E-020
  -84.180000000000007          2.0531055005436206E-018
  -84.165000000000006          4.1533375485359185E-018
  -84.150000000000006          6.3215330304022578E-018
  -84.135000000000005          8.5236627697179724E-018
  -84.120000000000005          1.0723474335367007E-017
  -84.105000000000004          1.2883074997078614E-017
  -84.090000000000003          1.4963553351657686E-017
  -84.075000000000003          1.6925638999523269E-017
  -84.060000000000002          1.8730361807656763E-017
  -84.045000000000002          2.0339716135633809E-017
  -84.030000000000001          2.1717309345224521E-017
  -84.015000000000001          2.2828973914046786E-017
  -84.000000000000000          2.3643341498911367E-017
  -83.984999999999999          2.4132349170356791E-017
  -83.969999999999999          2.4271687744541349E-017
  -83.954999999999998          2.4041170705796296E-017
  -83.939999999999998          2.3425030337285147E-017
  -83.924999999999997          2.2412124516156813E-017
  -83.909999999999997          2.0996075679888510E-017
  -83.894999999999996          1.9175320457122513E-017
  -83.879999999999995          1.6953104704582480E-017
  -83.864999999999995          1.4337412369540772E-017
  -83.849999999999994          1.1340850511713310E-017
  -83.834999999999994          7.9805045466523774E-018
  -83.819999999999993          4.2777695009016579E-018
  -83.805000000000007          2.5818323170523092E-019
  -83.790000000000006         -4.0487273251887873E-018
  -83.775000000000006         -8.6095778840407926E-018
  -83.760000000000005         -1.3387214283469470E-017
  -83.745000000000005         -1.8340761393505512E-017
  -83.730000000000004         -2.3425611018075160E-017
  -83.715000000000003         -2.8593363992357321E-017
  -83.700000000000003         -3.3791707760052919E-017
  -83.685000000000002         -3.8964286506028715E-017
  -83.670000000000002         -4.4050500978609075E-017
  -83.655000000000001         -4.8985324855479979E-017
  -83.640000000000001         -5.3699139307566515E-017
  -83.625000000000000         -5.8117617193747118E-017
  -83.609999999999999         -6.2161650268959667E-017
  -83.594999999999999         -6.5747464989487242E-017
  -83.579999999999998         -6.8786830962472485E-017
  -83.564999999999998         -7.1187467918778981E-017
  -83.549999999999997         -7.2853740544705800E-017
  -83.534999999999997         -7.3687538602159252E-017
  -83.519999999999996         -7.3589534243183969E-017
  -83.504999999999995         -7.2460690787400203E-017
  -83.489999999999995         -7.0204142076355544E-017
  -83.474999999999994         -6.6727435787346164E-017
  -83.459999999999994         -6.1945028210144281E-017
  -83.444999999999993         -5.5781189305309438E-017
  -83.430000000000007         -4.8173089742234559E-017
  -83.415000000000006         -3.9074202265824761E-017
  -83.400000000000006         -2.8457795707404780E-017
  -83.385000000000005         -1.6320531566022353E-017
  -83.370000000000005         -2.6860622441128191E-018
  -83.355000000000004          1.2391519609346527E-017
  -83.340000000000003          2.8824458403169936E-017
  -83.325000000000003          4.6488486793933565E-017
  -83.310000000000002          6.5220491382286859E-017
  -83.295000000000002          8.4816783905472309E-017
  -83.280000000000001          1.0503217810376185E-016
  -83.265000000000001          1.2557995332450989E-016
  -83.250000000000000          1.4613282397783127E-016
  -83.234999999999999          1.6632504388407952E-016
  -83.219999999999999          1.8575570176140735E-016
  -83.204999999999998          2.0399324755807850E-016
  -83.189999999999998          2.2058132903886990E-016
  -83.174999999999997          2.3504595186045398E-016
  -83.159999999999997          2.4690369843796494E-016
  -83.144999999999996          2.5567136294477380E-016
  -83.129999999999995          2.6087640687543108E-016
  -83.114999999999995          2.6206847339979350E-016
  -83.099999999999994          2.5883140464296318E-016
  -83.084999999999994          2.5079592070971686E-016
  -83.069999999999993          2.3765229870893506E-016
  -83.055000000000007          2.1916305177803138E-016
  -83.040000000000006          1.9517511841645900E-016
  -83.025000000000006          1.6563133713516805E-016
  -83.010000000000005          1.3058072996598088E-016
  -82.995000000000005          9.0187349985423898E-017
  -82.980000000000004          4.4737262719097550E-017
  -82.965000000000003         -5.3565648073132095E-018
  -82.950000000000003         -5.9551875584020164E-017
  -82.935000000000002         -1.1717739972263704E-016
  -82.920000000000002         -1.7743609121391641E-016
  -82.905000000000001         -2.3941145379148424E-016
  -82.890000000000001         -3.0207698940238671E-016
  -82.875000000000000         -3.6430889708385418E-016
  -82.859999999999999         -4.2490182248216418E-016
  -82.844999999999999         -4.8258786315439543E-016
  -82.829999999999998         -5.3605798262012561E-016
  -82.814999999999998         -5.8398617727020772E-016
  -82.799999999999997         -6.2505562850901654E-016
  -82.784999999999997         -6.5798662837192844E-016
  -82.769999999999996         -6.8156537864552799E-016
  -82.754999999999995         -6.9467342526252510E-016
  -82.739999999999995         -6.9631709269667207E-016
  -82.724999999999994         -6.8565591250605582E-016
  -82.709999999999994         -6.6202983426652843E-016
  -82.694999999999993         -6.2498400128541435E-016
  -82.680000000000007         -5.7429082639769819E-016
  -82.665000000000006         -5.0996857375130511E-016
  -82.650000000000006         -4.3229562601830617E-016
  -82.635000000000005         -3.4182059585072613E-016
  -82.620000000000005         -2.3936671986395737E-016
  -82.605000000000004         -1.2603132924116783E-016
  -82.590000000000003         -3.1794270894348658E-018
  -82.575000000000003          1.2756858816131598E-016
  -82.560000000000002          2.6435482708266967E-016
  -82.545000000000002          4.0510764188667644E-016
  -82.530000000000001          5.4757053680185084E-016
  -82.515000000000001          6.8933621772231655E-016
  -82.500000000000000          8.2788492044866963E-016
  -82.484999999999999          9.6062652410732483E-016
  -82.469999999999999          1.0849456556549569E-015
  -82.454999999999998          1.1982489119653100E-015
  -82.439999999999998          1.2980135112841055E-015
  -82.424999999999997          1.3818356799861543E-015
  -82.409999999999997          1.4474788275742312E-015
  -82.394999999999996          1.4929192864582275E-015
  -82.379999999999995          1.5163902517892889E-015
  -82.364999999999995          1.5164208508545085E-015
  -82.349999999999994          1.4918719302189475E-015
  -82.334999999999994          1.4419651724831978E-015
  -82.319999999999993          1.3663076602388516E-015
  -82.305000000000007          1.2649086049692105E-015
  -82.290000000000006          1.1381902525984806E-015
  -82.275000000000006          9.8699105986532537E-016
  -82.260000000000005          8.1256241207019455E-016
  -82.245000000000005          6.1655750576789176E-016
  -82.230000000000004          4.0101424928995163E-016
  -82.215000000000003          1.6833118848009213E-016
  -82.200000000000003         -7.8761901230922952E-017
  -82.185000000000002         -3.3723862406211320E-016
  -82.170000000000002         -6.0381527150499010E-016
  -82.155000000000001         -8.7499324014536878E-016
  -82.140000000000001         -1.1471044273353849E-015
  -82.125000000000000         -1.4163579900591610E-015
  -82.109999999999999         -1.6788886522805797E-015
  -82.094999999999999         -1.9308046152443628E-015
  -82.079999999999998         -2.1682347266233212E-015
  -82.064999999999998         -2.3873748555722175E-015
  -82.049999999999997         -2.5845315149245493E-015
  -82.034999999999997         -2.7561641069607937E-015
  -82.019999999999996         -2.8989234634075071E-015
  -82.004999999999995         -3.0096884796122943E-015
  -81.989999999999995         -3.0855997841034615E-015
  -81.974999999999994         -3.1240904435343546E-015
  -81.960000000000008         -3.1229147618035656E-015
  -81.944999999999993         -3.0801745380762977E-015
  -81.930000000000007         -2.9943436307398354E-015
  -81.915000000000006         -2.8642925213590150E-015
  -81.900000000000006         -2.6893101257746167E-015
  -81.885000000000005         -2.4691275110258872E-015
  -81.870000000000005         -2.2039397064489317E-015
  -81.855000000000004         -1.8944294205992373E-015
  -81.840000000000003         -1.5417904405368404E-015