  -90.000000000000000          0.0000000000000000     
  -89.984999999999999          0.0000000000000000     
  -89.969999999999999          0.0000000000000000     
  -89.954999999999998          0.0000000000000000     
  -89.939999999999998          0.0000000000000000     
  -89.924999999999997          0.0000000000000000     
  -89.909999999999997          0.0000000000000000     
  -89.894999999999996          0.0000000000000000     
  -89.879999999999995          0.0000000000000000     
  -89.864999999999995          0.0000000000000000     
  -89.849999999999994          0.0000000000000000     
  -89.834999999999994          0.0000000000000000     
  -89.819999999999993          0.0000000000000000     
  -89.805000000000007          0.0000000000000000     
  -89.790000000000006          0.0000000000000000     
  -89.775000000000006          0.0000000000000000     
  -89.760000000000005          0.0000000000000000     
  -89.745000000000005          0.0000000000000000     
  -89.730000000000004          0.0000000000000000     
  -89.715000000000003          0.0000000000000000     
  -89.700000000000003          0.0000000000000000     
  -89.685000000000002          0.0000000000000000     
  -89.670000000000002          0.0000000000000000     
  -89.655000000000001          0.0000000000000000     
  -89.640000000000001          0.0000000000000000     
  -89.625000000000000          0.0000000000000000     
  -89.609999999999999          0.0000000000000000     
  -89.594999999999999          0.0000000000000000     
  -89.579999999999998          0.0000000000000000     
  -89.564999999999998          0.0000000000000000     
  -89.549999999999997          0.0000000000000000     
  -89.534999999999997          0.0000000000000000     
  -89.519999999999996          0.0000000000000000     
  -89.504999999999995          0.0000000000000000     
  -89.489999999999995          0.0000000000000000     
  -89.474999999999994          0.0000000000000000     
  -89.459999999999994          0.0000000000000000     
  -89.444999999999993          0.0000000000000000     
  -89.430000000000007          0.0000000000000000     
  -89.415000000000006          0.0000000000000000     
  -89.400000000000006          0.0000000000000000     
  -89.385000000000005          0.0000000000000000     
  -89.370000000000005          0.0000000000000000     
  -89.355000000000004          0.0000000000000000     
  -89.340000000000003          0.0000000000000000     
  -89.325000000000003          0.0000000000000000     
  -89.310000000000002          0.0000000000000000     
  -89.295000000000002          0.0000000000000000     
  -89.280000000000001          0.0000000000000000     
  -89.265000000000001          0.0000000000000000     
  -89.250000000000000          0.0000000000000000     
  -89.234999999999999          0.0000000000000000     
  -89.219999999999999          0.0000000000000000     
  -89.204999999999998          0.0000000000000000     
  -89.189999999999998          0.0000000000000000     
  -89.174999999999997          0.0000000000000000     
  -89.159999999999997          0.0000000000000000     
  -89.144999999999996          0.0000000000000000     
  -89.129999999999995          0.0000000000000000     
  -89.114999999999995          0.0000000000000000     
  -89.099999999999994          0.0000000000000000     
  -89.084999999999994          0.0000000000000000     
  -89.069999999999993          0.0000000000000000     
  -89.055000000000007          0.0000000000000000     
  -89.040000000000006          0.0000000000000000     
  -89.025000000000006          0.0000000000000000     
  -89.010000000000005          0.0000000000000000     
  -88.995000000000005          0.0000000000000000     
  -88.980000000000004          0.0000000000000000     
  -88.965000000000003          0.0000000000000000     
  -88.950000000000003          0.0000000000000000     
  -88.935000000000002          0.0000000000000000     
  -88.920000000000002          0.0000000000000000     
  -88.905000000000001          0.0000000000000000     
  -88.890000000000001          0.0000000000000000     
  -88.875000000000000          0.0000000000000000     
  -88.859999999999999          0.0000000000000000     
  -88.844999999999999          0.0000000000000000     
  -88.829999999999998          0.0000000000000000     
  -88.814999999999998          0.0000000000000000     
  -88.799999999999997          0.0000000000000000     
  -88.784999999999997          0.0000000000000000     
  -88.769999999999996          0.0000000000000000     
  -88.754999999999995          0.0000000000000000     
  -88.739999999999995          0.0000000000000000     
  -88.724999999999994          0.0000000000000000     
  -88.709999999999994          0.0000000000000000     
  -88.694999999999993          0.0000000000000000     
  -88.680000000000007          0.0000000000000000     
  -88.665000000000006          0.0000000000000000     
  -88.650000000000006          0.0000000000000000     
  -88.635000000000005          0.0000000000000000     
  -88.620000000000005          0.0000000000000000     
  -88.605000000000004          0.0000000000000000     
  -88.590000000000003          0.0000000000000000     
  -88.575000000000003          0.0000000000000000     
  -88.560000000000002          0.0000000000000000     
  -88.545000000000002          0.0000000000000000     
  -88.530000000000001          0.0000000000000000     
  -88.515000000000001          0.0000000000000000     
  -88.500000000000000          0.0000000000000000     
  -88.484999999999999          0.0000000000000000     
  -88.469999999999999          0.0000000000000000     
  -88.454999999999998          0.0000000000000000     
  -88.439999999999998          0.0000000000000000     
  -88.424999999999997          0.0000000000000000     
  -88.409999999999997          0.0000000000000000     
  -88.394999999999996          0.0000000000000000     
  -88.379999999999995          0.0000000000000000     
  -88.364999999999995          0.0000000000000000     
  -88.349999999999994          0.0000000000000000     
  -88.334999999999994          0.0000000000000000     
  -88.319999999999993          0.0000000000000000     
  -88.305000000000007          0.0000000000000000     
  -88.290000000000006          0.0000000000000000     
  -88.275000000000006          0.0000000000000000     
  -88.260000000000005          0.0000000000000000     
  -88.245000000000005          0.0000000000000000     
  -88.230000000000004          0.0000000000000000     
  -88.215000000000003         -1.1964539923427331E-038
  -88.200000000000003         -3.0448590123559658E-038
  -88.185000000000002         -5.6559281484598412E-038
  -88.170000000000002         -9.1431159893901072E-038
  -88.155000000000001         -1.3619329636572500E-037
  -88.140000000000001         -1.9192425911767330E-037
  -88.125000000000000         -2.5959650444243653E-037
  -88.109999999999999         -3.4059447038121675E-037
  -88.094999999999999         -4.3627421027352266E-037
  -88.079999999999998         -5.4728807900124218E-037
  -88.064999999999998         -7.2004616245102066E-037
  -88.049999999999997         -9.5399018331467108E-037
  -88.034999999999997         -1.2562621450805116E-036
  -88.019999999999996         -1.6327608640808622E-036
  -88.004999999999995         -2.1452857998284395E-036
  -87.989999999999995         -2.8093922172667152E-036
  -87.974999999999994         -3.6228407293458211E-036
  -87.959999999999994         -4.6124155531258828E-036
  -87.944999999999993         -5.7584676591193625E-036
  -87.930000000000007         -7.0637682551693088E-036
  -87.915000000000006         -8.5257176075231554E-036
  -87.900000000000006         -1.0133487378479617E-035
  -87.885000000000005         -1.1865209957980887E-035
  -87.870000000000005         -1.3685229497178810E-035
  -87.855000000000004         -1.5540807310010219E-035
  -87.840000000000003         -1.7298304812944893E-035
  -87.825000000000003         -1.8752131028677640E-035
  -87.810000000000002         -1.9744049092539358E-035
  -87.795000000000002         -2.0129850011899079E-035
  -87.780000000000001         -1.9657512791495609E-035
  -87.765000000000001         -1.8149225256681918E-035
  -87.750000000000000         -1.5355501932848550E-035
  -87.734999999999999         -1.0907578102637904E-035
  -87.719999999999999         -4.4812489946113838E-036
  -87.704999999999998          4.3278417443359350E-036
  -87.689999999999998          1.6051005148634449E-035
  -87.674999999999997          3.1254684352248682E-035
  -87.659999999999997          5.0511698240210409E-035
  -87.644999999999996          7.4477095057318305E-035
  -87.629999999999995          1.0378910280327786E-034
  -87.614999999999995          1.3916349307486297E-034
  -87.599999999999994          1.8132993332735993E-034
  -87.584999999999994          2.3100635903142086E-034
  -87.569999999999993          2.8888186931190426E-034
  -87.555000000000007          3.5556334756573321E-034
  -87.540000000000006          4.3156530216013284E-034
  -87.525000000000006          5.1723018766027631E-034
  -87.510000000000005          6.1266682912911083E-034
  -87.495000000000005          7.1767493334951582E-034
  -87.480000000000004          8.3164755952738313E-034
  -87.465000000000003          9.5349691621072135E-034
  -87.450000000000003          1.0815343322961773E-033
  -87.435000000000002          1.2133338813172416E-033
  -87.420000000000002          1.3456131789702352E-033
  -87.405000000000001          1.4741016910128192E-033
  -87.390000000000001          1.5934031636907501E-033
  -87.375000000000000          1.6968604418875351E-033
  -87.359999999999999          1.7764246953779032E-033
  -87.344999999999999          1.8225251960942532E-033
  -87.329999999999998          1.8240138494869743E-033
  -87.314999999999998          1.7680391962237170E-033
  -87.299999999999997          1.6400308001550470E-033
  -87.284999999999997          1.4236967687560480E-033
  -87.269999999999996          1.1010881298091291E-033
  -87.254999999999995          6.5273056942326336E-034
  -87.239999999999995          5.7792835375067173E-035
  -87.224999999999994         -7.0554401532002213E-034
  -87.209999999999994         -1.6597552280198603E-033
  -87.194999999999993         -2.8274459493916187E-033
  -87.180000000000007         -4.2307235547544181E-033
  -87.165000000000006         -5.8904407628788691E-033
  -87.150000000000006         -7.8253018929384619E-033
  -87.135000000000005         -1.0050833755939620E-032
  -87.120000000000005         -1.2578217139868588E-032
  -87.105000000000004         -1.5412992296537584E-032
  -87.090000000000003         -1.8553604634667645E-032
  -87.075000000000003         -2.1989928739794377E-032
  -87.060000000000002         -2.5701613865969168E-032
  -87.045000000000002         -2.9656402978837516E-032
  -87.030000000000001         -3.3808451798717352E-032
  -87.015000000000001         -3.8096634619365918E-032
  -87.000000000000000         -4.2442925064511506E-032
  -86.984999999999999         -4.6750912026235550E-032
  -86.969999999999999         -5.0904471356356193E-032
  -86.954999999999998         -5.4766728492663687E-032
  -86.939999999999998         -5.8179312020007624E-032
  -86.924999999999997         -6.0962012776935193E-032
  -86.909999999999997         -6.2912939608692665E-032
  -86.894999999999996         -6.3809212908892380E-032
  -86.879999999999995         -6.3408304683072685E-032
  -86.864999999999995         -6.1450048644037836E-032
  -86.849999999999994         -5.7659443765884714E-032
  -86.834999999999994         -5.1750257174188091E-032
  -86.819999999999993         -4.3429482208326127E-032
  -86.805000000000007         -3.2402660472153716E-032
  -86.790000000000006         -1.8380079627967197E-032
  -86.775000000000006         -1.0838485867993587E-033
  -86.760000000000005          1.9744249638304093E-032
  -86.745000000000005          4.4334136783247205E-032
  -86.730000000000004          7.2878187090316853E-032
  -86.715000000000003          1.0552142423630986E-031
  -86.700000000000003          1.4235140197921134E-031
  -86.685000000000002          1.8338780397192583E-031
  -86.670000000000002          2.2857210235072587E-031
  -86.655000000000001          2.7775734856681517E-031
  -86.640000000000001          3.3069851082276483E-031
  -86.625000000000000          3.8704343452095550E-031
  -86.609999999999999          4.4632462555806517E-031
  -86.594999999999999          5.0795240894794733E-031
  -86.579999999999998          5.7120909836965096E-031
  -86.564999999999998          6.3524509352617573E-031
  -86.549999999999997          6.9907650564588339E-031
  -86.534999999999997          7.6158454622543531E-031
  -86.519999999999996          8.2151717272188368E-031
  -86.504999999999995          8.7749223887753163E-031
  -86.489999999999995          9.2800323113236532E-031
  -86.474999999999994          9.7142608649128869E-031
  -86.459999999999994          1.0060283143602858E-030
  -86.444999999999993          1.0299797170549004E-030
  -86.430000000000007          1.0413638626250999E-030
  -86.415000000000006          1.0381913444315526E-030
  -86.400000000000006          1.0184131347614533E-030
  -86.385000000000005          9.7993478480028073E-031
  -86.370000000000005          9.2063118884084439E-031
  -86.355000000000004          8.3836078425504220E-031
  -86.340000000000003          7.3098008060403673E-031
  -86.325000000000003          5.9635785961001314E-031
  -86.310000000000002          4.3238965724658131E-031
  -86.295000000000002          2.3701245741816110E-031
  -86.280000000000001          8.2199601622316289E-033
  -86.265000000000001         -2.5592035458079865E-031
  -86.250000000000000         -5.5724794004403078E-031
  -86.234999999999999         -8.9748645738953808E-031
  -86.219999999999999         -1.2782157240050517E-030
  -86.204999999999998         -1.7008378225324583E-030
  -86.189999999999998         -2.1665337016163682E-030
  -86.174999999999997         -2.6762109369351641E-030
  -86.159999999999997         -3.2304379035173556E-030
  -86.144999999999996         -3.8293645004025596E-030
  -86.129999999999995         -4.4726251018278964E-030
  -86.114999999999995         -5.1592258978494067E-030
  -86.099999999999994         -5.8874091012346450E-030
  -86.084999999999994         -6.6545017318693893E-030
  -86.069999999999993         -7.4567380700908936E-030
  -86.055000000000007         -8.2890663113770639E-030
  -86.040000000000006         -9.1449337800186764E-030
  -86.025000000000006         -1.0016056720305713E-029
  -86.010000000000005         -1.0892179555284310E-029
  -85.995000000000005         -1.1760822860767948E-029
  -85.980000000000004         -1.2607035100930550E-029
  -85.965000000000003         -1.3413149630114287E-029
  -85.950000000000003         -1.4158561254863369E-029
  -85.935000000000002         -1.4819532888613224E-029
  -85.920000000000002         -1.5369038317566128E-029
  -85.905000000000001         -1.5776671922725070E-029
  -85.890000000000001         -1.6008617082605593E-029
  -85.875000000000000         -1.6027716890975946E-029
  -85.859999999999999         -1.5793638161828906E-029
  -85.844999999999999         -1.5263163328138978E-029
  -85.829999999999998         -1.4390607225139419E-029
  -85.814999999999998         -1.3128403897102173E-029
  -85.799999999999997         -1.1427837848863625E-029
  -85.784999999999997         -9.2399603671809579E-030
  -85.769999999999996         -6.5166811318061004E-030
  -85.754999999999995         -3.2120456487066497E-030
  -85.739999999999995          7.1630986408600055E-031
  -85.724999999999994          5.3055303697809983E-030
  -85.709999999999994          1.0585753568702918E-029
  -85.694999999999993          1.6578186789533814E-029
  -85.680000000000007          2.3293070939058050E-029
  -85.665000000000006          3.0727568279873194E-029
  -85.650000000000006          3.8863614190954000E-029
  -85.635000000000005          4.7665806167877432E-029
  -85.620000000000005          5.7079321411070292E-029
  -85.605000000000004          6.7028001428294217E-029
  -85.590000000000003          7.7412645781085573E-029
  -85.575000000000003          8.8109531526110711E-029
  -85.560000000000002          9.8969314833244551E-029
  -85.545000000000002          1.0981633283596575E-028
  -85.530000000000001          1.2044842909395549E-028
  -85.515000000000001          1.3063724850112019E-028
  -85.500000000000000          1.4012929052852990E-028
  -85.484999999999999          1.4864752219074667E-028
  -85.469999999999999          1.5589377342119288E-028
  -85.454999999999998          1.6155191485655953E-028
  -85.439999999999998          1.6529175784494358E-028
  -85.424999999999997          1.6677377297421171E-028
  -85.409999999999997          1.6565460304646614E-028
  -85.394999999999996          1.6159332235036386E-028
  -85.379999999999995          1.5425830982360570E-028
  -85.364999999999995          1.4333485647621663E-028
  -85.349999999999994          1.2853323022218790E-028
  -85.334999999999994          1.0959718608241879E-028
  -85.319999999999993          8.6312825462460782E-029
  -85.305000000000007          5.8517533671165765E-029
  -85.290000000000006          2.6108989661707087E-029
  -85.275000000000006         -1.0945994250902243E-029
  -85.260000000000005         -5.2602960682235030E-029
  -85.245000000000005         -9.8731775448728690E-029
  -85.230000000000004         -1.4910926389491351E-028
  -85.215000000000003         -2.0341272442154525E-028
  -85.200000000000003         -2.6121433576560259E-028
  -85.185000000000002         -3.2197679958378796E-028
  -85.170000000000002         -3.8505028303874079E-028
  -85.155000000000001         -4.4967064935090114E-028
  -85.140000000000001         -5.1495933742788816E-028
  -85.125000000000000         -5.7992485446020701E-028
  -85.109999999999999         -6.4346576111266263E-028
  -85.094999999999999         -7.0437575116458805E-028
  -85.079999999999998         -7.6135024781990399E-028
  -85.064999999999998         -8.1299511854011714E-028
  -85.049999999999997         -8.5783693062127403E-028
  -85.034999999999997         -8.9433571047984263E-028
  -85.019999999999996         -9.2089958072028968E-028
  -85.004999999999995         -9.3590103424311073E-028
  -84.989999999999995         -9.3769619354427408E-028
  -84.974999999999994         -9.2464599594460895E-028
  -84.959999999999994         -8.9513949734213264E-028
  -84.944999999999993         -8.4762064263827749E-028
  -84.930000000000007         -7.8061696209406224E-028
  -84.915000000000006         -6.9277183065666052E-028
  -84.900000000000006         -5.8287947173614008E-028
  -84.885000000000005         -4.4992362024909640E-028
  -84.870000000000005         -2.9311919492782432E-028
  -84.855000000000004         -1.1195788267468929E-028
  -84.840000000000003          9.3743147447341805E-029
  -84.825000000000003          3.2378897929083482E-028
  -84.810000000000002          5.7755177173098167E-028
  -84.795000000000002          8.5391265576659059E-028
  -84.780000000000001          1.1512024760631098E-027
  -84.765000000000001          1.4671403056391528E-027
  -84.750000000000000          1.7987735012969796E-027
  -84.734999999999999          2.1424187220179496E-027
  -84.719999999999999          2.4936070399591067E-027
  -84.704999999999998          2.8470344440536083E-027
  -84.689999999999998          3.1965213954818937E-027
  -84.674999999999997          3.5349835535365288E-027
  -84.659999999999997          3.8544175237406180E-027
  -84.644999999999996          4.1459039393357151E-027
  -84.629999999999995          4.3996344243010448E-027
  -84.614999999999995          4.6049616675320568E-027
  -84.599999999999994          4.7504826230140231E-027
  -84.584999999999994          4.8241532952467236E-027
  -84.569999999999993          4.8134420432680196E-027
  -84.555000000000007          4.7055217884623031E-027
  -84.540000000000006          4.4875076743156346E-027
  -84.525000000000006          4.1467386373736125E-027
  -84.510000000000005          3.6711055857038965E-027
  -84.495000000000005          3.0494242589334409E-027
  -84.480000000000004          2.2718525772674438E-027
  -84.465000000000003          1.3303495905950939E-027
  -84.450000000000003          2.1916887766719875E-028
  -84.435000000000002         -1.0646189250357789E-027
  -84.420000000000002         -2.5205837332831331E-027
  -84.405000000000001         -4.1443859213535491E-027
  -84.390000000000001         -5.9272292857085241E-027
  -84.375000000000000         -7.8553359161189064E-027
  -84.359999999999999         -9.9094565279765344E-027
  -84.344999999999999         -1.2064437320649744E-026
  -84.329999999999998         -1.4288867147117558E-026
  -84.314999999999998         -1.6544813661567302E-026
  -84.299999999999997         -1.8787693126530367E-026
  -84.284999999999997         -2.0966271183254187E-026
  -84.269999999999996         -2.3022830022421410E-026
  -84.254999999999995         -2.4893531999723397E-026
  -84.239999999999995         -2.6508971222196300E-026
  -84.224999999999994         -2.7794953164662545E-026
  -84.209999999999994         -2.8673506938509604E-026
  -84.194999999999993         -2.9064140998013734E-026
  -84.180000000000007         -2.8885328417513090E-026
  -84.165000000000006         -2.8056241769101628E-026
  -84.150000000000006         -2.6498728356380071E-026
  -84.135000000000005         -2.4139470337481529E-026
  -84.120000000000005         -2.0912360552250900E-026
  -84.105000000000004         -1.6761023179356079E-026
  -84.090000000000003         -1.1641440704732109E-026
  -84.075000000000003         -5.5246610087110044E-027
  -84.060000000000002          1.6004988209293193E-027
  -84.045000000000002          9.7247983649086863E-027
  -84.030000000000001          1.8816047437543614E-026
  -84.015000000000001          2.8816777637444548E-026
  -84.000000000000000          3.9642204906227697E-026
  -83.984999999999999          5.1178543762034705E-026
  -83.969999999999999          6.3281762378416609E-026
  -83.954999999999998          7.5776893871785715E-026
  -83.939999999999998          8.8457913041899166E-026
  -83.924999999999997          1.0108829720265874E-025
  -83.909999999999997          1.1340235430340052E-025
  -83.894999999999996          1.2510728752579523E-025
  -83.879999999999995          1.3588612269736376E-025
  -83.864999999999995          1.4540149852160769E-025
  -83.849999999999994          1.5330028880987582E-025
  -83.834999999999994          1.5921905055199085E-025
  -83.819999999999993          1.6279033480349117E-025
  -83.805000000000007          1.6364976178187453E-025
  -83.790000000000006          1.6144368760852068E-025
  -83.775000000000006          1.5583758595580934E-025
  -83.760000000000005          1.4652479947278748E-025
  -83.745000000000005          1.3323564866343432E-025
  -83.730000000000004          1.1574676263205586E-025
  -83.715000000000003          9.3890348198921266E-026
  -83.700000000000003          6.7563280289600362E-026
  -83.685000000000002          3.6735871849558383E-026
  -83.670000000000002          1.4599829721868265E-027
  -83.655000000000001         -3.8123604522846495E-026
  -83.640000000000001         -8.1778824972619165E-026
  -83.625000000000000         -1.2916914465272986E-025
  -83.609999999999999         -1.7985374131006769E-025
  -83.594999999999999         -2.3328525024699822E-025
  -83.579999999999998         -2.8880927436478572E-025
  -83.564999999999998         -3.4566548733626519E-025
  -83.549999999999997         -4.0299089998302815E-025
  -83.534999999999997         -4.5982514810867788E-025
  -83.519999999999996         -5.1511764155078301E-025
  -83.504999999999995         -5.6773698120793358E-025
  -83.489999999999995         -6.1648222495954377E-025
  -83.474999999999994         -6.6009652016837019E-025
  -83.459999999999994         -6.9728214134151770E-025
  -83.444999999999993         -7.2671804228558057E-025
  -83.430000000000007         -7.4707839433791515E-025
  -83.415000000000006         -7.5705329396540196E-025
  -83.400000000000006         -7.5537040713553266E-025
  -83.385000000000005         -7.4081804349788778E-025
  -83.370000000000005         -7.1226916733793936E-025
  -83.355000000000004         -6.6870619739175888E-025
  -83.340000000000003         -6.0924639830640404E-025
  -83.325000000000003         -5.3316742001172525E-025
  -83.310000000000002         -4.3993318221881827E-025
  -83.295000000000002         -3.2921953705134713E-025
  -83.280000000000001         -2.0093941398689806E-025
  -83.265000000000001         -5.5267440945388536E-026
  -83.250000000000000          1.0733638372080026E-025
  -83.234999999999999          2.8610427032078287E-025
  -83.219999999999999          4.7993976998903612E-025
  -83.204999999999998          6.8739879888284310E-025
  -83.189999999999998          9.0667294268079120E-025
  -83.174999999999997          1.1355758240802538E-024
  -83.159999999999997          1.3715323052637501E-024
  -83.144999999999996          1.6115715360622178E-024
  -83.129999999999995          1.8523248831951367E-024
  -83.114999999999995          2.0900289871065370E-024
  -83.099999999999994          2.3205339463968904E-024
  -83.084999999999994          2.5393195880792804E-024
  -83.069999999999993          2.7415182459380408E-024
  -83.055000000000007          2.9219461177497380E-024
  -83.040000000000006          3.0751452721263741E-024
  -83.025000000000006          3.1954343328285475E-024
  -83.010000000000005          3.2769709959921913E-024
  -82.995000000000005          3.3138271691297959E-024
  -82.980000000000004          3.3000759430452095E-024
  -82.965000000000003          3.2298917771686013E-024
  -82.950000000000003          3.0976633066659079E-024
  -82.935000000000002          2.8981211379054793E-024
  -82.920000000000002          2.6264762935469449E-024
  -82.905000000000001          2.2785722654806954E-024
  -82.890000000000001          1.8510471257439050E-024
  -82.875000000000000          1.3415048079445781E-024
  -82.859999999999999          7.4869274887664338E-025
  -82.844999999999999          7.2684405048923798E-026
  -82.829999999999998         -6.8493903197275083E-025
  -82.814999999999998         -1.5209098229850431E-024
  -82.799999999999997         -2.4301031762580154E-024
  -82.784999999999997         -3.4053799992070308E-024
  -82.769999999999996         -4.4374502713817541E-024
  -82.754999999999995         -5.5147589554577341E-024
  -82.739999999999995         -6.6234063222849766E-024
  -82.724999999999994         -7.7471031830315730E-024
  -82.709999999999994         -8.8671760167795840E-024
  -82.694999999999993         -9.9626166687620689E-024
  -82.680000000000007         -1.1010194763042079E-023
  -82.665000000000006         -1.1984633618494524E-023
  -82.650000000000006         -1.2858849273660449E-023
  -82.635000000000005         -1.3604262875665508E-023
  -82.620000000000005         -1.4191194321811667E-023
  -82.605000000000004         -1.4589316643458607E-023
  -82.590000000000003         -1.4768205053213765E-023
  -82.575000000000003         -1.4697936479220298E-023
  -82.560000000000002         -1.4349779029588247E-023
  -82.545000000000002         -1.3696920899870958E-023
  -82.530000000000001         -1.2715267911440268E-023
  -82.515000000000001         -1.1384274182019694E-023
  -82.500000000000000         -9.6877988286275094E-024
  -82.484999999999999         -7.6149729257115796E-024
  -82.469999999999999         -5.1610593635360521E-024
  -82.454999999999998         -2.3282815465622922E-024
  -82.439999999999998          8.7339563425494804E-025
  -82.424999999999997          4.4255637152618839E-024
  -82.409999999999997          8.3007659982218453E-024
  -82.394999999999996          1.2462016739593545E-023
  -82.379999999999995          1.6862469828950886E-023
  -82.364999999999995          2.1445256283636486E-023
  -82.349999999999994          2.6143525663959200E-023
  -82.334999999999994          3.0880695353240173E-023
  -82.319999999999993          3.5570927818660496E-023
  -82.305000000000007          4.0119875295955735E-023
  -82.290000000000006          4.4425657976938408E-023
  -82.275000000000006          4.8380113565171851E-023
  -82.260000000000005          5.1870315044351866E-023
  -82.245000000000005          5.4780325104959931E-023
  -82.230000000000004          5.6993212472736946E-023
  -82.215000000000003          5.8393270185548714E-023
  -82.200000000000003          5.8868442129530401E-023
  -82.185000000000002          5.8312919969186523E-023
  -82.170000000000002          5.6629837896243181E-023
  -82.155000000000001          5.3734080974470649E-023
  -82.140000000000001          4.9555080862731476E-023
  -82.125000000000000          4.4039617848915832E-023
  -82.109999999999999          3.7154502977019259E-023
  -82.094999999999999          2.8889137111919207E-023
  -82.079999999999998          1.9257827034992764E-023
  -82.064999999999998          8.3018317493047989E-024
  -82.049999999999997         -3.9089434415980746E-024
  -82.034999999999997         -1.7274662273703349E-023
  -82.019999999999996         -3.1664741051495716E-023
  -82.004999999999995         -4.6917555980561232E-023
  -81.989999999999995         -6.2840716507890976E-023
  -81.974999999999994         -7.9211934252168151E-023
  -81.960000000000008         -9.5780562860255073E-023
  -81.944999999999993         -1.1226972477619365E-022
  -81.930000000000007         -1.2837917322856953E-022
  -81.915000000000006         -1.4378871904228435E-022
  -81.900000000000006         -1.5816238320236088E-022
  -81.885000000000005         -1.7115305428872738E-022
  -81.870000000000005         -1.8240773913440280E-022
  -81.855000000000004         -1.9157333097643573E-022
  -81.840000000000003         -1.9830276888185236E-022