  -90.000000000000000          0.0000000000000000     
  -89.984999999999999          0.0000000000000000     
  -89.969999999999999          0.0000000000000000     
  -89.954999999999998          0.0000000000000000     
  -89.939999999999998          0.0000000000000000     
  -89.924999999999997          0.0000000000000000     
  -89.909999999999997          0.0000000000000000     
  -89.894999999999996          0.0000000000000000     
  -89.879999999999995          0.0000000000000000     
  -89.864999999999995          0.0000000000000000     
  -89.849999999999994          0.0000000000000000     
  -89.834999999999994          0.0000000000000000     
  -89.819999999999993          0.0000000000000000     
  -89.805000000000007          0.0000000000000000     
  -89.790000000000006          0.0000000000000000     
  -89.775000000000006          0.0000000000000000     
  -89.760000000000005          0.0000000000000000     
  -89.745000000000005          0.0000000000000000     
  -89.730000000000004          0.0000000000000000     
  -89.715000000000003          0.0000000000000000     
  -89.700000000000003          0.0000000000000000     
  -89.685000000000002          0.0000000000000000     
  -89.670000000000002          0.0000000000000000     
  -89.655000000000001          0.0000000000000000     
  -89.640000000000001          0.0000000000000000     
  -89.625000000000000          0.0000000000000000     
  -89.609999999999999          0.0000000000000000     
  -89.594999999999999          0.0000000000000000     
  -89.579999999999998          0.0000000000000000     
  -89.564999999999998          0.0000000000000000     
  -89.549999999999997          0.0000000000000000     
  -89.534999999999997          0.0000000000000000     
  -89.519999999999996          0.0000000000000000     
  -89.504999999999995          0.0000000000000000     
  -89.489999999999995          0.0000000000000000     
  -89.474999999999994          0.0000000000000000     
  -89.459999999999994          0.0000000000000000     
  -89.444999999999993          0.0000000000000000     
  -89.430000000000007          0.0000000000000000     
  -89.415000000000006          0.0000000000000000     
  -89.400000000000006          0.0000000000000000     
  -89.385000000000005          0.0000000000000000     
  -89.370000000000005          0.0000000000000000     
  -89.355000000000004          0.0000000000000000     
  -89.340000000000003          0.0000000000000000     
  -89.325000000000003          0.0000000000000000     
  -89.310000000000002          0.0000000000000000     
  -89.295000000000002          0.0000000000000000     
  -89.280000000000001          0.0000000000000000     
  -89.265000000000001          0.0000000000000000     
  -89.250000000000000          0.0000000000000000     
  -89.234999999999999          0.0000000000000000     
  -89.219999999999999          0.0000000000000000     
  -89.204999999999998          0.0000000000000000     
  -89.189999999999998          0.0000000000000000     
  -89.174999999999997          0.0000000000000000     
  -89.159999999999997          0.0000000000000000     
  -89.144999999999996          0.0000000000000000     
  -89.129999999999995          0.0000000000000000     
  -89.114999999999995          0.0000000000000000     
  -89.099999999999994          0.0000000000000000     
  -89.084999999999994          0.0000000000000000     
  -89.069999999999993          0.0000000000000000     
  -89.055000000000007          0.0000000000000000     
  -89.040000000000006          0.0000000000000000     
  -89.025000000000006          0.0000000000000000     
  -89.010000000000005          0.0000000000000000     
  -88.995000000000005          0.0000000000000000     
  -88.980000000000004          0.0000000000000000     
  -88.965000000000003          0.0000000000000000     
  -88.950000000000003          0.0000000000000000     
  -88.935000000000002          0.0000000000000000     
  -88.920000000000002          0.0000000000000000     
  -88.905000000000001          0.0000000000000000     
  -88.890000000000001          0.0000000000000000     
  -88.875000000000000          0.0000000000000000     
  -88.859999999999999          0.0000000000000000     
  -88.844999999999999          0.0000000000000000     
  -88.829999999999998          0.0000000000000000     
  -88.814999999999998          0.0000000000000000     
  -88.799999999999997          0.0000000000000000     
  -88.784999999999997          0.0000000000000000     
  -88.769999999999996          0.0000000000000000     
  -88.754999999999995          0.0000000000000000     
  -88.739999999999995          0.0000000000000000     
  -88.724999999999994          0.0000000000000000     
  -88.709999999999994          0.0000000000000000     
  -88.694999999999993          0.0000000000000000     
  -88.680000000000007          0.0000000000000000     
  -88.665000000000006          0.0000000000000000     
  -88.650000000000006          0.0000000000000000     
  -88.635000000000005          0.0000000000000000     
  -88.620000000000005          0.0000000000000000     
  -88.605000000000004          0.0000000000000000     
  -88.590000000000003          0.0000000000000000     
  -88.575000000000003         -1.4714393379178243E-038
  -88.560000000000002         -3.5944931116150175E-038
  -88.545000000000002         -6.5406278445623713E-038
  -88.530000000000001         -1.0410334853532011E-037
  -88.515000000000001         -1.5290792839625285E-037
  -88.500000000000000         -2.1338681544657735E-037
  -88.484999999999999         -2.8705536263522676E-037
  -88.469999999999999         -3.7735819700565349E-037
  -88.454999999999998         -4.8801467857303161E-037
  -88.439999999999998         -6.2080100358763754E-037
  -88.424999999999997         -7.6873323502792897E-037
  -88.409999999999997         -9.1922748847651475E-037
  -88.394999999999996         -1.0669247053487573E-036
  -88.379999999999995         -1.2153137376676432E-036
  -88.364999999999995         -1.3617448981929499E-036
  -88.349999999999994         -1.4753036146149850E-036
  -88.334999999999994         -1.5619585664023060E-036
  -88.319999999999993         -1.5577273176633079E-036
  -88.305000000000007         -1.3994885696490706E-036
  -88.290000000000006         -1.0241117862511969E-036
  -88.275000000000006         -3.5956762559344162E-037
  -88.260000000000005          6.9295209027446346E-037
  -88.245000000000005          2.2864889736222677E-036
  -88.230000000000004          4.5813654696494964E-036
  -88.215000000000003          7.7994789165816922E-036
  -88.200000000000003          1.2185578803792853E-035
  -88.185000000000002          1.7716776210062820E-035
  -88.170000000000002          2.4608119016406618E-035
  -88.155000000000001          3.3105413537868875E-035
  -88.140000000000001          4.3475337140925751E-035
  -88.125000000000000          5.6019164780301300E-035
  -88.109999999999999          7.1287952480832294E-035
  -88.094999999999999          8.9695046071007341E-035
  -88.079999999999998          1.1168462514715010E-034
  -88.064999999999998          1.3774641397196007E-034
  -88.049999999999997          1.6835901897338313E-034
  -88.034999999999997          2.0391888250889633E-034
  -88.019999999999996          2.4472486024187178E-034
  -88.004999999999995          2.9118659588235925E-034
  -87.989999999999995          3.4343079945618271E-034
  -87.974999999999994          4.0134820968178820E-034
  -87.959999999999994          4.6449921003906741E-034
  -87.944999999999993          5.3202410548961135E-034
  -87.930000000000007          6.0252364449620878E-034
  -87.915000000000006          6.7392105914874289E-034
  -87.900000000000006          7.4330851621461512E-034
  -87.885000000000005          8.0676234412047531E-034
  -87.870000000000005          8.5915954563089798E-034
  -87.855000000000004          8.9397208633698850E-034
  -87.840000000000003          9.0305296386808299E-034
  -87.825000000000003          8.7640689465784184E-034
  -87.810000000000002          8.0197202096988217E-034
  -87.795000000000002          6.6539335272875606E-034
  -87.780000000000001          4.4982812218584368E-034
  -87.765000000000001          1.3597517127812387E-034
  -87.750000000000000         -2.9865619667448774E-034
  -87.734999999999999         -8.7917297980212053E-034
  -87.719999999999999         -1.6334590520499811E-033
  -87.704999999999998         -2.5920190428348849E-033
  -87.689999999999998         -3.7876569587264508E-033
  -87.674999999999997         -5.2550148019144041E-033
  -87.659999999999997         -7.0298727837278519E-033
  -87.644999999999996         -9.1482171943492802E-033
  -87.629999999999995         -1.1645032582369083E-032
  -87.614999999999995         -1.4552780224285219E-032
  -87.599999999999994         -1.7899533129247231E-032
  -87.584999999999994         -2.1706747742577472E-032
  -87.569999999999993         -2.5986638919948925E-032
  -87.555000000000007         -3.0739153764115802E-032
  -87.540000000000006         -3.5948536242673269E-032
  -87.525000000000006         -4.1579503892681396E-032
  -87.510000000000005         -4.7573052775200658E-032
  -87.495000000000005         -5.3841925944569515E-032
  -87.480000000000004         -6.0265861512491218E-032
  -87.465000000000003         -6.6686646755552716E-032
  -87.450000000000003         -7.2903131080441302E-032
  -87.435000000000002         -7.8666374171011583E-032
  -87.420000000000002         -8.3675020418015006E-032
  -87.405000000000001         -8.7571237586117757E-032
  -87.390000000000001         -8.9937313757755136E-032
  -87.375000000000000         -9.0293312221901666E-032
  -87.359999999999999         -8.8095984141796580E-032
  -87.344999999999999         -8.2739303404873449E-032
  -87.329999999999998         -7.3556988058142691E-032
  -87.314999999999998         -5.9827249305368898E-032
  -87.299999999999997         -4.0780285283557323E-032
  -87.284999999999997         -1.5608647453760199E-032
  -87.269999999999996          1.6519009053754520E-032
  -87.254999999999995          5.6440638325706379E-032
  -87.239999999999995          1.0497967415484639E-031
  -87.224999999999994          1.6291997878597307E-031
  -87.209999999999994          2.3097669359476794E-031
  -87.194999999999993          3.0976307398405497E-031
  -87.180000000000007          3.9975346718922148E-031
  -87.165000000000006          5.0124273421322775E-031
  -87.150000000000006          6.1430258021147392E-031
  -87.135000000000005          7.3873486385618539E-031
  -87.120000000000005          8.7402387226576942E-031
  -87.105000000000004          1.0192871383211767E-030
  -87.090000000000003          1.1732268692393253E-030
  -87.075000000000003          1.3340828327595201E-030
  -87.060000000000002          1.4995880174965391E-030
  -87.045000000000002          1.6669294184490905E-030
  -87.030000000000001          1.8327149350788936E-030
  -87.015000000000001          1.9929483567908929E-030
  -87.000000000000000          2.1430136583287313E-030
  -86.984999999999999          2.2776720845487602E-030
  -86.969999999999999          2.3910721186121344E-030
  -86.954999999999998          2.4767743084255012E-030
  -86.939999999999998          2.5277928321212459E-030
  -86.924999999999997          2.5366541787354846E-030
  -86.909999999999997          2.4954748248747666E-030
  -86.894999999999996          2.3960567788969093E-030
  -86.879999999999995          2.2300026853178303E-030
  -86.864999999999995          1.9888478563370325E-030
  -86.849999999999994          1.6642107351145088E-030
  -86.834999999999994          1.2479572769007611E-030
  -86.819999999999993          7.3237920100015945E-031
  -86.805000000000007          1.1038223443628212E-031
  -86.790000000000006         -6.2431859141663837E-031
  -86.775000000000006         -1.4770007524861667E-030
  -86.760000000000005         -2.4517360906738903E-030
  -86.745000000000005         -3.5511989026477039E-030
  -86.730000000000004         -4.7764811756397473E-030
  -86.715000000000003         -6.1269229401016948E-030
  -86.700000000000003         -7.5999610541114656E-030
  -86.685000000000002         -9.1909935983449124E-030
  -86.670000000000002         -1.0893274927940180E-029
  -86.655000000000001         -1.2697826146847949E-029
  -86.640000000000001         -1.4593374546362476E-029
  -86.625000000000000         -1.6566319750884296E-029
  -86.609999999999999         -1.8600714157694222E-029
  -86.594999999999999         -2.0678265946218881E-029
  -86.579999999999998         -2.2778342087296256E-029
  -86.564999999999998         -2.4877987903401683E-029
  -86.549999999999997         -2.6951927068647847E-029
  -86.534999999999997         -2.8972552580988172E-029
  -86.519999999999996         -3.0909881623233750E-029
  -86.504999999999995         -3.2731474312883808E-029
  -86.489999999999995         -3.4402296780543725E-029
  -86.474999999999994         -3.5884525567665061E-029
  -86.459999999999994         -3.7137267764850506E-029
  -86.444999999999993         -3.8116208927785923E-029
  -86.430000000000007         -3.8773170715206252E-029
  -86.415000000000006         -3.9055593295222950E-029
  -86.400000000000006         -3.8905930482950833E-029
  -86.385000000000005         -3.8260990711355234E-029
  -86.370000000000005         -3.7051238881647158E-029
  -86.355000000000004         -3.5200074139554143E-029
  -86.340000000000003         -3.2623134734980949E-029
  -86.325000000000003         -2.9227693159636410E-029
  -86.310000000000002         -2.4912177673812863E-029
  -86.295000000000002         -1.9565878902996194E-029
  -86.280000000000001         -1.3068958865662445E-029
  -86.265000000000001         -5.2928056904531211E-030
  -86.250000000000000          3.8991587721860225E-030
  -86.234999999999999          1.4650121771247292E-029
  -86.219999999999999          2.7107879245894603E-029
  -86.204999999999998          4.1422118834840761E-029
  -86.189999999999998          5.7740866309905155E-029
  -86.174999999999997          7.6206032615333741E-029
  -86.159999999999997          9.6948045338079071E-029
  -86.144999999999996          1.2007944499073520E-028
  -86.129999999999995          1.4568747619978286E-028
  -86.114999999999995          1.7382572194739356E-028
  -86.099999999999994          2.0450477484826142E-028
  -86.084999999999994          2.3768204777649119E-028
  -86.069999999999993          2.7325094050966102E-028
  -86.055000000000007          3.1102940451977773E-028
  -86.040000000000006          3.5074841146773470E-028
  -86.025000000000006          3.9204010873415399E-028
  -86.010000000000005          4.3442672124808173E-028
  -85.995000000000005          4.7730991072404541E-028
  -85.980000000000004          5.1996150712419652E-028
  -85.965000000000003          5.6151580493853301E-028
  -85.950000000000003          6.0096395391393623E-028
  -85.935000000000002          6.3715131090049741E-028
  -85.920000000000002          6.6877768059276075E-028
  -85.905000000000001          6.9440160072384961E-028
  -85.890000000000001          7.1244862356422742E-028
  -85.875000000000000          7.2122450854181674E-028
  -85.859999999999999          7.1893332598347646E-028
  -85.844999999999999          7.0370104975682059E-028
  -85.829999999999998          6.7360497585011875E-028
  -85.814999999999998          6.2670834096304651E-028
  -85.799999999999997          5.6110124851800366E-028
  -85.784999999999997          4.7494650579279061E-028
  -85.769999999999996          3.6653092587950200E-028
  -85.754999999999995          2.3432093891167089E-028
  -85.739999999999995          7.7022157466329985E-029
  -85.724999999999994         -1.0635816913901049E-028
  -85.709999999999994         -3.1644694915684180E-028
  -85.694999999999993         -5.5344047697821455E-028
  -85.680000000000007         -8.1704063068479974E-028
  -85.665000000000006         -1.1063932121980130E-027
  -85.650000000000006         -1.4200308073449772E-027
  -85.635000000000005         -1.7558210264912666E-027
  -85.620000000000005         -2.1109226414864241E-027
  -85.605000000000004         -2.4817510152214589E-027
  -85.590000000000003         -2.8639545089870280E-027
  -85.575000000000003         -3.2524026380042782E-027
  -85.560000000000002         -3.6411905010637184E-027
  -85.545000000000002         -4.0236555361157353E-027
  -85.530000000000001         -4.3924125721955816E-027
  -85.515000000000001         -4.7394054443458855E-027
  -85.500000000000000         -5.0559747863506931E-027
  -85.484999999999999         -5.3329458531409325E-027
  -85.469999999999999         -5.5607294395234997E-027
  -85.454999999999998         -5.7294435989537437E-027
  -85.439999999999998         -5.8290476882595961E-027
  -85.424999999999997         -5.8494922049912443E-027
  -85.409999999999997         -5.7808805655364602E-027
  -85.394999999999996         -5.6136412832576279E-027
  -85.379999999999995         -5.3387101614644835E-027
  -85.364999999999995         -4.9477178789906977E-027
  -85.349999999999994         -4.4331818128163372E-027
  -85.334999999999994         -3.7887024829221922E-027
  -85.319999999999993         -3.0091559526912204E-027
  -85.305000000000007         -2.0908887330189192E-027
  -85.290000000000006         -1.0319070049303617E-027
  -85.275000000000006          1.6793891244231738E-028
  -85.260000000000005          1.5067746920401783E-027
  -85.245000000000005          2.9805300855558151E-027
  -85.230000000000004          4.5827734138287604E-027
  -85.215000000000003          6.3045540137389715E-027
  -85.200000000000003          8.1342529425249547E-027
  -85.185000000000002          1.0057439592299405E-026
  -85.170000000000002          1.2056741304591973E-026
  -85.155000000000001          1.4111712407113042E-026
  -85.140000000000001          1.6198725591304871E-026
  -85.125000000000000          1.8290867912124592E-026
  -85.109999999999999          2.0357849884150838E-026
  -85.094999999999999          2.2365941540709589E-026
  -85.079999999999998          2.4277926211555505E-026
  -85.064999999999998          2.6053092819152153E-026
  -85.049999999999997          2.7647266693551110E-026
  -85.034999999999997          2.9012892772565567E-026
  -85.019999999999996          3.0099188135421922E-026
  -85.004999999999995          3.0852374655097060E-026
  -84.989999999999995          3.1216011799012747E-026
  -84.974999999999994          3.1131446526270637E-026
  -84.959999999999994          3.0538404933331186E-026
  -84.944999999999993          2.9375731811112300E-026
  -84.930000000000007          2.7582315091362639E-026
  -84.915000000000006          2.5098199804541451E-026
  -84.900000000000006          2.1865931608547775E-026
  -84.885000000000005          1.7832105236395730E-026
  -84.870000000000005          1.2949162544410597E-026
  -84.855000000000004          7.1774255238781100E-027
  -84.840000000000003          4.8736215762402876E-028
  -84.825000000000003         -7.1379270118346611E-027
  -84.810000000000002         -1.5700020669273374E-026
  -84.795000000000002         -2.5182325965256241E-026
  -84.780000000000001         -3.5547120095148539E-026
  -84.765000000000001         -4.6732514455745350E-026
  -84.750000000000000         -5.8649466372369853E-026
  -84.734999999999999         -7.1178851685357853E-026
  -84.719999999999999         -8.4168808507478483E-026
  -84.704999999999998         -9.7432333663363609E-026
  -84.689999999999998         -1.1074538449295464E-025
  -84.674999999999997         -1.2384551683384587E-025
  -84.659999999999997         -1.3643132419048463E-025
  -84.644999999999996         -1.4816267192725261E-025
  -84.629999999999995         -1.5866199149338837E-025
  -84.614999999999995         -1.6751674561331628E-025
  -84.599999999999994         -1.7428324933165609E-025
  -84.584999999999994         -1.7849182226101019E-025
  -84.569999999999993         -1.7965349389965799E-025
  -84.555000000000007         -1.7726837295272226E-025
  -84.540000000000006         -1.7083558204919423E-025
  -84.525000000000006         -1.5986488111433398E-025
  -84.510000000000005         -1.4388984381197793E-025
  -84.495000000000005         -1.2248255007889862E-025
  -84.480000000000004         -9.5269696143603493E-026
  -84.465000000000003         -6.1949758413999286E-026
  -84.450000000000003         -2.2311117248540684E-026
  -84.435000000000002          2.3749323153067341E-026
  -84.420000000000002          7.6207328429148574E-026
  -84.405000000000001          1.3489279890627078E-025
  -84.390000000000001          1.9947208339938040E-025
  -84.375000000000000          2.6943164578513021E-025
  -84.359999999999999          3.4406355735679420E-025
  -84.344999999999999          4.2245370088854424E-025
  -84.329999999999998          5.0347326572881565E-025
  -84.314999999999998          5.8577364485632652E-025
  -84.299999999999997          6.6778643488007776E-025
  -84.284999999999997          7.4772797198955808E-025
  -84.269999999999996          8.2360983366554476E-025
  -84.254999999999995          8.9325510893627386E-025
  -84.239999999999995          9.5432142325511130E-025
  -84.224999999999994          1.0043303728730790E-024
  -84.209999999999994          1.0407040589595278E-024
  -84.194999999999993          1.0608079819138589E-024
  -84.180000000000007          1.0620013312482320E-024
  -84.165000000000006          1.0416926988889960E-024
  -84.150000000000006          9.9740210336536228E-025
  -84.135000000000005          9.2682735273305653E-025
  -84.120000000000005          8.2791523927101474E-025
  -84.105000000000004          6.9893470633034256E-025
  -84.090000000000003          5.3855228315837703E-025
  -84.075000000000003          3.4590707598848913E-025
  -84.060000000000002          1.2068467444614171E-025
  -84.045000000000002         -1.3681270146030406E-025
  -84.030000000000001         -4.2560096007753662E-025
  -84.015000000000001         -7.4395603357124381E-025
  -84.000000000000000         -1.0893647466828596E-024
  -83.984999999999999         -1.4584866679092255E-024
  -83.969999999999999         -1.8471284591972196E-024
  -83.954999999999998         -2.2502328318910832E-024
  -83.939999999999998         -2.6618837236321111E-024
  -83.924999999999997         -3.0753278934259328E-024
  -83.909999999999997         -3.4830165340552619E-024
  -83.894999999999996         -3.8766640422173360E-024
  -83.879999999999995         -4.2473288767667011E-024
  -83.864999999999995         -4.5855123635435910E-024
  -83.849999999999994         -4.8812780105858419E-024
  -83.834999999999994         -5.1243883754959481E-024
  -83.819999999999993         -5.3044632320525589E-024
  -83.805000000000007         -5.4111491753051012E-024
  -83.790000000000006         -5.4343089481910322E-024
  -83.775000000000006         -5.3642190511925979E-024
  -83.760000000000005         -5.1917791849071687E-024
  -83.745000000000005         -4.9087295812266279E-024
  -83.730000000000004         -4.5078699122385707E-024
  -83.715000000000003         -3.9832793824188609E-024
  -83.700000000000003         -3.3305368208241873E-024
  -83.685000000000002         -2.5469303208776264E-024
  -83.670000000000002         -1.6316597804060577E-024
  -83.655000000000001         -5.8602465053560653E-025
  -83.640000000000001          5.8640483218811649E-025
  -83.625000000000000          1.8796374171013775E-024
  -83.609999999999999          3.2851335369937394E-024
  -83.594999999999999          4.7917048269502591E-024
  -83.579999999999998          6.3854444580727953E-024
  -83.564999999999998          8.0496881381690069E-024
  -83.549999999999997          9.7650109563087316E-024
  -83.534999999999997          1.1509259726121100E-023
  -83.519999999999996          1.3257623194415102E-023
  -83.504999999999995          1.4982749975884913E-023
  -83.489999999999995          1.6654895281238271E-023
  -83.474999999999994          1.8242124443310018E-023
  -83.459999999999994          1.9710557463942723E-023
  -83.444999999999993          2.1024651426190747E-023
  -83.430000000000007          2.2147547593118544E-023
  -83.415000000000006          2.3041450061035165E-023
  -83.400000000000006          2.3668065943879371E-023
  -83.385000000000005          2.3989086578371820E-023
  -83.370000000000005          2.3966733415761478E-023
  -83.355000000000004          2.3564335468008240E-023
  -83.340000000000003          2.2746980906890645E-023
  -83.325000000000003          2.1482198639827986E-023
  -83.310000000000002          1.9740701416853028E-023
  -83.295000000000002          1.7497174691517229E-023
  -83.280000000000001          1.4731098613953979E-023
  -83.265000000000001          1.1427617355596157E-023
  -83.250000000000000          7.5784305219990267E-024
  -83.234999999999999          3.1827135563014061E-024
  -83.219999999999999         -1.7519612656674883E-024
  -83.204999999999998         -7.2087024597746115E-024
  -83.189999999999998         -1.3160399243290233E-023
  -83.174999999999997         -1.9568868579034167E-023
  -83.159999999999997         -2.6384052509404708E-023
  -83.144999999999996         -3.3543312323083687E-023
  -83.129999999999995         -4.0970841642522986E-023
  -83.114999999999995         -4.8577212040063131E-023
  -83.099999999999994         -5.6259123757887239E-023
  -83.084999999999994         -6.3899329977374124E-023
  -83.069999999999993         -7.1366845078377266E-023
  -83.055000000000007         -7.8517433732986056E-023
  -83.040000000000006         -8.5194371367438425E-023
  -83.025000000000006         -9.1229636919809539E-023
  -83.010000000000005         -9.6445408520288100E-023
  -82.995000000000005         -1.0065600093355956E-022
  -82.980000000000004         -1.0367025107418353E-022
  -82.965000000000003         -1.0529428848609289E-022
  -82.950000000000003         -1.0533481069307229E-022
  -82.935000000000002         -1.0360274351335834E-022
  -82.920000000000002         -9.9917343136346817E-023
  -82.905000000000001         -9.4110714717857719E-023
  -82.890000000000001         -8.6032640208875239E-023
  -82.875000000000000         -7.5555728039537047E-023
  -82.859999999999999         -6.2580777373289790E-023
  -82.844999999999999         -4.7042255957014949E-023
  -82.829999999999998         -2.8913831613696245E-023
  -82.814999999999998         -8.2138003943084705E-024
  -82.799999999999997          1.4989688796407237E-023
  -82.784999999999997          4.0573785860819905E-023
  -82.769999999999996          6.8356583418490093E-023
  -82.754999999999995          9.8093471479926871E-023
  -82.739999999999995          1.2947427624808458E-022
  -82.724999999999994          1.6212144258283720E-022
  -82.709999999999994          1.9558939029047969E-022
  -82.694999999999993          2.2936515783422666E-022
  -82.680000000000007          2.6287044075079145E-022
  -82.665000000000006          2.9546551702225052E-022
  -82.650000000000006          3.2645444724713063E-022
  -82.635000000000005          3.5509239526960937E-022
  -82.620000000000005          3.8059453915230043E-022
  -82.605000000000004          4.0214702687650542E-022
  -82.590000000000003          4.1891952238605042E-022
  -82.575000000000003          4.3007969538439312E-022
  -82.560000000000002          4.3480922574466793E-022
  -82.545000000000002          4.3232122155847328E-022
  -82.530000000000001          4.2187889936210722E-022
  -82.515000000000001          4.0281540032250660E-022
  -82.500000000000000          3.7455401031996968E-022
  -82.484999999999999          3.3662885965830916E-022
  -82.469999999999999          2.8870549655726027E-022
  -82.454999999999998          2.3060090528681176E-022
  -82.439999999999998          1.6230259029022491E-022
  -82.424999999999997          8.3986082585242264E-023
  -82.409999999999997         -3.9694037135264760E-024
  -82.394999999999996         -1.0096790391370947E-022
  -82.379999999999995         -2.0618655641620977E-022
  -82.364999999999995         -3.1856891790789450E-022
  -82.349999999999994         -4.3682219682640022E-022
  -82.334999999999994         -5.5941880504953351E-022
  -82.319999999999993         -6.8460247314500824E-022
  -82.305000000000007         -8.1039940801908904E-022
  -82.290000000000006         -9.3463462549277293E-022
  -82.275000000000006         -1.0549534578055093E-021
  -82.260000000000005         -1.1688481098287134E-021
  -82.245000000000005         -1.2736900212955419E-021
  -82.230000000000004         -1.3667669243307766E-021
  -82.215000000000003         -1.4453241418969348E-021
  -82.200000000000003         -1.5066110359243683E-021
  -82.185000000000002         -1.5479304846672393E-021
  -82.170000000000002         -1.5666919951305469E-021
  -82.155000000000001         -1.5604668349810710E-021
  -82.140000000000001         -1.5270447800454506E-021
  -82.125000000000000         -1.4644918715502205E-021
  -82.109999999999999         -1.3712070626456929E-021
  -82.094999999999999         -1.2459783600588609E-021
  -82.079999999999998         -1.0880354316494453E-021
  -82.064999999999998         -8.9709958863684954E-022
  -82.049999999999997         -6.7342851716892952E-022
  -82.034999999999997         -4.1785522911804968E-022
  -82.019999999999996         -1.3182039906730980E-022
  -82.004999999999995          1.8260327566470174E-022
  -81.989999999999995          5.2269539877999943E-022
  -81.974999999999994          8.8508184179299746E-022
  -81.960000000000008          1.2657387072676976E-021
  -81.944999999999993          1.6600076011648142E-021
  -81.930000000000007          2.0626215074794657E-021
  -81.915000000000006          2.4677423001549391E-021
  -81.900000000000006          2.8690111292064290E-021
  -81.885000000000005          3.2596081974449912E-021
  -81.870000000000005          3.6323253609243719E-021
  -81.855000000000004          3.9796495336267951E-021
  -81.840000000000003          4.2938569973619037E-021